 Entering Gaussian System, Link 0=g16
 Input=dimero_b3lypd3_n07d_gas_of_sincounter.com
 Output=dimero_b3lypd3_n07d_gas_of_sincounter.log
 AtFile(1): N07D_B3LYP.gbs
             -H 0
             6-31G
             P   1 1.00       0.000000000000
                  0.7500000000D+00  0.10000000D+01
             ****
             -He 0
             6-31G**
             ****
             -Li 0
             6-31+G**
             ****
             -Be 0
             6-31+G**
             ****
             -B 0
             6-31G
             P   1 1.00       0.000000000000
                  0.3500000000D-01  0.1000000000D+01
             D   1 1.00       0.000000000000
                  0.3430000000D+00  0.1000000000D+01
             ****
             -C 0
             6-31G
             S   1 1.00       0.000000000000
                  0.7500000000D+01  0.1000000000D+01
             P   1 1.00       0.000000000000
                  0.5000000000D-01  0.1000000000D+01
             D   1 1.00       0.000000000000
                  0.8200000000D+00  0.1000000000D+01
             ****
             -N 0
             6-31G
             S   1 1.00       0.000000000000
                  0.1260000000D+02  0.1000000000D+01
             P   1 1.00       0.000000000000
                  0.5300000000D-01  0.1000000000D+01
             D   1 1.00       0.000000000000
                  0.1015000000D+01  0.1000000000D+01
             ****
             -O 0
             6-31G
             S   1 1.00
                  0.1510000000D+02  0.1000000000D+01
             P   1 1.00       0.000000000000
                  0.6500000000D-01  0.1000000000D+01
             D   1 1.00        0.000000000000
                  0.1190000000D+01  0.1000000000D+01
             D   1 1.00        0.000000000000
                  0.1800000000D+00  0.1000000000D+01
             ****
             -F 0
             6-31G
             S   1 1.00
                  0.1830000000D+02  0.1000000000D+01
             P   1 1.00       0.000000000000
                  0.8300000000D-01  0.1000000000D+01
             D   1 1.00       0.000000000000
                  1.3700000000D+00  0.1000000000D+01
             D   1 1.00       0.000000000000
                  0.2300000000D+00  0.1000000000D+01
             ****
             -Ne 0
             6-31+G**
             ****
             -Na 0
             6-31+G**
             ****
             -Mg 0
             6-31+G**
             ****
             -Al 0
             6-31G
             S   1 1.00      0.000000000000
                  0.3100000000D+01  0.1000000000D+01
             P   1 1.00      0.000000000000
                  0.1500000000D-01  0.1000000000D+01
             D   1 1.00      0.000000000000
                  0.1890000000D+00  0.1000000000D+01
             ****
             -Si 0
             6-31G
             S   1 1.0
                  0.3600000000D+01  0.1000000000D+01
             P   1 1.00       0.000000000000
                  0.3300000000D-01  0.1000000000D+01
             D   1 1.0        0.000000000000
                  0.2750000000D+00  0.1000000000D+01
             ****
             -P  0
             6-31G
             S   1 1.00       0.000000000000
                  0.5500000000D+01  0.1000000000D+01
             P   1 1.00       0.000000000000
                  0.3500000000D-01  0.1000000000D+01
             D   1 1.00       0.000000000000
                  0.3730000000D+00  0.1000000000D+01
             ****
             -S  0
             6-31G
             S   1 1.00       0.000000000000
                  0.8000000000D+01  0.1000000000D+01
             P   1 1.00        0.000000000000
                  0.4100000000D-01  0.1000000000D+01
             D   1 1.00        0.000000000000
                  0.4790000000D+00  0.1000000000D+01
             ****
            -Cl 0
             6-31G
             S   1 1.00      0.000000000000
                  0.8500000000D+01  0.1000000000D+01
             P   1 1.00      0.000000000000
                  0.4800000000D-01  0.1000000000D+01
             D   1 1.00      0.000000000000
                  0.6000000000D+00  0.1000000000D+01
             D   1 1.00       0.000000000000
                  0.1960000000D+00  0.1000000000D+01
             ****
            -Br 0
             S   3 1.00       0.000000000000
                  0.4721881000D+01  0.1749732514D+00
                  0.2257555000D+01 -0.7074172290D+00
                  0.3896080000D+00  0.1258999543D+01
             S   1 1.00       0.000000000000
                  0.1471340000D+00  0.1000000000D+01
             P   3 1.00       0.000000000000
                  0.1896942000D+01 -0.2464576731D+00
                  0.9108990000D+00  0.3623179892D+00
                  0.3168550000D+00  0.8338469725D+00
             P   1 1.00       0.000000000000
                  0.1095030000D+00  0.1000000000D+01
             P   1 1.00       0.000000000000
                  0.3609700000D-01  0.1000000000D+01
             D   1 1.00
                  0.4750000000D+00  0.1000000000D+01
             D   1 1.00
                  0.1280000000D+00  0.1000000000D+01
             ****
            -I   0
             S   3 1.00       0.000000000000
                  0.2122765000D+01  0.2063429899D+01
                  0.1770481000D+01 -0.2869526473D+01
                  0.3130840000D+00  0.1404747074D+01
             S   1 1.00       0.000000000000
                  0.1320000000D+00  0.1000000000D+01
             P   3 1.00       0.000000000000
                  0.2432887000D+01  0.7732753148D+00
                  0.2137249000D+01 -0.1020833156D+01
                  0.3145460000D+00  0.1095666871D+01
             P   1 1.00       0.000000000000
                  0.1049450000D+00  0.1000000000D+01
             P   1 1.00       0.000000000000
                  0.3264100000D-01  0.1000000000D+01
             D   1 1.00
                  0.300000000          1.00000000
             D   1 1.00
                  0.090000000          1.00000000
             ****
             -Zn 0
             SP   6 1.00       0.000000000000
                  0.6936492000D+02 -0.4440098182D-02 -0.7689261805D-02
                  0.2362082000D+02  0.7505253308D-01 -0.2997981924D-01
                  0.1018471000D+02  0.2533111104D+00  0.7082410821D-01
                  0.4334082000D+01 -0.2881897118D+00  0.4046140897D+00
                  0.1810918000D+01 -0.7267052298D+00  0.4882324876D+00
                  0.7148410000D+00 -0.2133439088D+00  0.1751969956D+00
             SP   3 1.00       0.000000000000
                  0.2823842000D+01  0.4898545031D-01 -0.1586762981D+00
                  0.1039543000D+01  0.2592794075D+00  0.8379326898D-01
                  0.1432640000D+00 -0.1115711463D+01  0.9840546881D+00
             SP   1 1.00       0.000000000000
                  0.4929600000D-01  0.1000000000D+01  0.1000000000D+01
             S    1 1.00       0.000000000000
                  0.1620000000D+00  0.1000000000D+01
             D    3 1.00       0.000000000000
                  0.3370764000D+02  0.9262647815D-01
                  0.9061106000D+01  0.4002979920D+00
                  0.2738383000D+01  0.6896607863D+00
             D    1 1.00
                  0.2440000000D+01  0.1000000000D+01
             D    1 1.00       0.000000000000
                  0.7302940000D+00  0.1000000000D+01
             D    1 1.00       0.000000000000
                  0.1620000000D+00  0.1000000000D+01
             ****
             -Br,-I,-Zn 0
             SDDALL
            ****
 Initial command:
 /home/apps/g16/g16/l1.exe "/scratch/gaussian/jpablo/Gau-4912.inp" -scrdir="/scratch/gaussian/jpablo/"
 Entering Link 1 = /home/apps/g16/g16/l1.exe PID=      4914.
  
 Copyright (c) 1988,1990,1992,1993,1995,1998,2003,2009,2016,
            Gaussian, Inc.  All Rights Reserved.
  
 This is part of the Gaussian(R) 16 program.  It is based on
 the Gaussian(R) 09 system (copyright 2009, Gaussian, Inc.),
 the Gaussian(R) 03 system (copyright 2003, Gaussian, Inc.),
 the Gaussian(R) 98 system (copyright 1998, Gaussian, Inc.),
 the Gaussian(R) 94 system (copyright 1995, Gaussian, Inc.),
 the Gaussian 92(TM) system (copyright 1992, Gaussian, Inc.),
 the Gaussian 90(TM) system (copyright 1990, Gaussian, Inc.),
 the Gaussian 88(TM) system (copyright 1988, Gaussian, Inc.),
 the Gaussian 86(TM) system (copyright 1986, Carnegie Mellon
 University), and the Gaussian 82(TM) system (copyright 1983,
 Carnegie Mellon University). Gaussian is a federally registered
 trademark of Gaussian, Inc.
  
 This software contains proprietary and confidential information,
 including trade secrets, belonging to Gaussian, Inc.
  
 This software is provided under written license and may be
 used, copied, transmitted, or stored only in accord with that
 written license.
  
 The following legend is applicable only to US Government
 contracts under FAR:
  
                    RESTRICTED RIGHTS LEGEND
  
 Use, reproduction and disclosure by the US Government is
 subject to restrictions as set forth in subparagraphs (a)
 and (c) of the Commercial Computer Software - Restricted
 Rights clause in FAR 52.227-19.
  
 Gaussian, Inc.
 340 Quinnipiac St., Bldg. 40, Wallingford CT 06492
  
  
 ---------------------------------------------------------------
 Warning -- This program may not be used in any manner that
 competes with the business of Gaussian, Inc. or will provide
 assistance to any competitor of Gaussian, Inc.  The licensee
 of this program is prohibited from giving any competitor of
 Gaussian, Inc. access to this program.  By using this program,
 the user acknowledges that Gaussian, Inc. is engaged in the
 business of creating and licensing software in the field of
 computational chemistry and represents and warrants to the
 licensee that it is not a competitor of Gaussian, Inc. and that
 it will not use this program in any manner prohibited above.
 ---------------------------------------------------------------
  

 Cite this work as:
 Gaussian 16, Revision A.03,
 M. J. Frisch, G. W. Trucks, H. B. Schlegel, G. E. Scuseria, 
 M. A. Robb, J. R. Cheeseman, G. Scalmani, V. Barone, 
 G. A. Petersson, H. Nakatsuji, X. Li, M. Caricato, A. V. Marenich, 
 J. Bloino, B. G. Janesko, R. Gomperts, B. Mennucci, H. P. Hratchian, 
 J. V. Ortiz, A. F. Izmaylov, J. L. Sonnenberg, D. Williams-Young, 
 F. Ding, F. Lipparini, F. Egidi, J. Goings, B. Peng, A. Petrone, 
 T. Henderson, D. Ranasinghe, V. G. Zakrzewski, J. Gao, N. Rega, 
 G. Zheng, W. Liang, M. Hada, M. Ehara, K. Toyota, R. Fukuda, 
 J. Hasegawa, M. Ishida, T. Nakajima, Y. Honda, O. Kitao, H. Nakai, 
 T. Vreven, K. Throssell, J. A. Montgomery, Jr., J. E. Peralta, 
 F. Ogliaro, M. J. Bearpark, J. J. Heyd, E. N. Brothers, K. N. Kudin, 
 V. N. Staroverov, T. A. Keith, R. Kobayashi, J. Normand, 
 K. Raghavachari, A. P. Rendell, J. C. Burant, S. S. Iyengar, 
 J. Tomasi, M. Cossi, J. M. Millam, M. Klene, C. Adamo, R. Cammi, 
 J. W. Ochterski, R. L. Martin, K. Morokuma, O. Farkas, 
 J. B. Foresman, and D. J. Fox, Gaussian, Inc., Wallingford CT, 2016.
 
 ******************************************
 Gaussian 16:  ES64L-G16RevA.03 25-Dec-2016
                18-Dec-2018 
 ******************************************
 %mem=2GB
 %nprocshared=8
 Will use up to    8 processors via shared memory.
 %chk=dimero_b3lypd3_n07d_gas_of_sincounter.chk
 ---------------------------------------------------------------
 #p opt freq b3lyp/gen geom=connectivity empiricaldispersion=gd3
 ---------------------------------------------------------------
 1/18=20,19=15,26=3,38=1,57=2/1,3;
 2/9=110,12=2,17=6,18=5,40=1/2;
 3/5=7,11=2,25=1,30=1,71=1,74=-5,124=31/1,2,3;
 4//1;
 5/5=2,38=5/2;
 6/7=2,8=2,9=2,10=2,28=1/1;
 7//1,2,3,16;
 1/18=20,19=15,26=3/3(2);
 2/9=110/2;
 99//99;
 2/9=110/2;
 3/5=7,6=1,11=2,25=1,30=1,71=1,74=-5,82=7,124=31/1,2,3;
 4/5=5,16=3,69=1/1;
 5/5=2,38=5/2;
 7//1,2,3,16;
 1/18=20,19=15,26=3/3(-5);
 2/9=110/2;
 6/7=2,8=2,9=2,10=2,19=2,28=1/1;
 99/9=1/99;
 Leave Link    1 at Tue Dec 18 12:14:55 2018, MaxMem=   268435456 cpu:               0.6 elap:               0.1
 (Enter /home/apps/g16/g16/l101.exe)
 -------
 Título
 -------
 Symbolic Z-matrix:
 Charge =  0 Multiplicity = 1
 C                    -4.71721   0.17175   0.62067 
 C                    -4.70181   0.64684  -0.6943 
 C                    -3.50695   0.61509  -1.41402 
 C                    -2.33856   0.11656  -0.83522 
 C                    -2.36162  -0.35844   0.48329 
 C                    -3.55928  -0.32831   1.21067 
 H                    -5.64081   0.19046   1.194 
 H                    -5.60806   1.03589  -1.14943 
 H                    -3.47728   0.98134  -2.43739 
 H                    -3.55824  -0.69997   2.23089 
 C                     2.34101  -0.41159  -0.27364 
 C                     3.55623  -1.05992  -0.50229 
 C                     4.7517   -0.40199  -0.20782 
 C                     4.73699   0.89271   0.31134 
 C                     3.51314   1.52897   0.53566 
 C                     2.31198   0.88464   0.24564 
 H                     3.56913  -2.07063  -0.90666 
 H                     5.6957   -0.90938  -0.38661 
 H                     5.66873   1.40127   0.53989 
 H                     3.48994   2.53686   0.94078 
 H                     1.35604   1.36944   0.41734 
 O                     1.13001  -1.01288  -0.55113 
 H                     1.28852  -1.90914  -0.88749 
 H                    -1.40944   0.09534  -1.3998 
 O                    -1.25951  -0.85781   1.10857 
 H                    -0.4919   -0.83376   0.50511 
 
 Add virtual bond connecting atoms H26        and O22        Dist= 3.67D+00.
 ITRead=  0  0  0  0  0  0  0  0  0  0  0  0  0  0  0  0  0  0  0  0
 ITRead=  0  0  0  0  0  0
 MicOpt= -1 -1 -1 -1 -1 -1 -1 -1 -1 -1 -1 -1 -1 -1 -1 -1 -1 -1 -1 -1
 MicOpt= -1 -1 -1 -1 -1 -1
 NAtoms=     26 NQM=       26 NQMF=       0 NMMI=      0 NMMIF=      0
                NMic=       0 NMicF=      0.
                    Isotopes and Nuclear Properties:
 (Nuclear quadrupole moments (NQMom) in fm**2, nuclear magnetic moments (NMagM)
  in nuclear magnetons)

  Atom         1           2           3           4           5           6           7           8           9          10
 IAtWgt=          12          12          12          12          12          12           1           1           1           1
 AtmWgt=  12.0000000  12.0000000  12.0000000  12.0000000  12.0000000  12.0000000   1.0078250   1.0078250   1.0078250   1.0078250
 NucSpn=           0           0           0           0           0           0           1           1           1           1
 AtZEff=  -0.0000000  -0.0000000  -0.0000000  -0.0000000  -0.0000000  -0.0000000  -0.0000000  -0.0000000  -0.0000000  -0.0000000
 NQMom=    0.0000000   0.0000000   0.0000000   0.0000000   0.0000000   0.0000000   0.0000000   0.0000000   0.0000000   0.0000000
 NMagM=    0.0000000   0.0000000   0.0000000   0.0000000   0.0000000   0.0000000   2.7928460   2.7928460   2.7928460   2.7928460
 AtZNuc=   6.0000000   6.0000000   6.0000000   6.0000000   6.0000000   6.0000000   1.0000000   1.0000000   1.0000000   1.0000000

  Atom        11          12          13          14          15          16          17          18          19          20
 IAtWgt=          12          12          12          12          12          12           1           1           1           1
 AtmWgt=  12.0000000  12.0000000  12.0000000  12.0000000  12.0000000  12.0000000   1.0078250   1.0078250   1.0078250   1.0078250
 NucSpn=           0           0           0           0           0           0           1           1           1           1
 AtZEff=  -0.0000000  -0.0000000  -0.0000000  -0.0000000  -0.0000000  -0.0000000  -0.0000000  -0.0000000  -0.0000000  -0.0000000
 NQMom=    0.0000000   0.0000000   0.0000000   0.0000000   0.0000000   0.0000000   0.0000000   0.0000000   0.0000000   0.0000000
 NMagM=    0.0000000   0.0000000   0.0000000   0.0000000   0.0000000   0.0000000   2.7928460   2.7928460   2.7928460   2.7928460
 AtZNuc=   6.0000000   6.0000000   6.0000000   6.0000000   6.0000000   6.0000000   1.0000000   1.0000000   1.0000000   1.0000000

  Atom        21          22          23          24          25          26
 IAtWgt=           1          16           1           1          16           1
 AtmWgt=   1.0078250  15.9949146   1.0078250   1.0078250  15.9949146   1.0078250
 NucSpn=           1           0           1           1           0           1
 AtZEff=  -0.0000000  -0.0000000  -0.0000000  -0.0000000  -0.0000000  -0.0000000
 NQMom=    0.0000000   0.0000000   0.0000000   0.0000000   0.0000000   0.0000000
 NMagM=    2.7928460   0.0000000   2.7928460   2.7928460   0.0000000   2.7928460
 AtZNuc=   1.0000000   8.0000000   1.0000000   1.0000000   8.0000000   1.0000000
 Leave Link  101 at Tue Dec 18 12:14:58 2018, MaxMem=   268435456 cpu:               3.8 elap:               0.6
 (Enter /home/apps/g16/g16/l103.exe)

 GradGradGradGradGradGradGradGradGradGradGradGradGradGradGradGradGradGrad
 Berny optimization.
 Initialization pass.
                           ----------------------------
                           !    Initial Parameters    !
                           ! (Angstroms and Degrees)  !
 --------------------------                            --------------------------
 ! Name  Definition              Value          Derivative Info.                !
 --------------------------------------------------------------------------------
 ! R1    R(1,2)                  1.3982         estimate D2E/DX2                !
 ! R2    R(1,6)                  1.3925         estimate D2E/DX2                !
 ! R3    R(1,7)                  1.0872         estimate D2E/DX2                !
 ! R4    R(2,3)                  1.3952         estimate D2E/DX2                !
 ! R5    R(2,8)                  1.0862         estimate D2E/DX2                !
 ! R6    R(3,4)                  1.396          estimate D2E/DX2                !
 ! R7    R(3,9)                  1.0873         estimate D2E/DX2                !
 ! R8    R(4,5)                  1.4017         estimate D2E/DX2                !
 ! R9    R(4,24)                 1.0874         estimate D2E/DX2                !
 ! R10   R(5,6)                  1.4016         estimate D2E/DX2                !
 ! R11   R(5,25)                 1.362          estimate D2E/DX2                !
 ! R12   R(6,10)                 1.0858         estimate D2E/DX2                !
 ! R13   R(11,12)                1.3962         estimate D2E/DX2                !
 ! R14   R(11,16)                1.3967         estimate D2E/DX2                !
 ! R15   R(11,22)                1.3802         estimate D2E/DX2                !
 ! R16   R(12,13)                1.396          estimate D2E/DX2                !
 ! R17   R(12,17)                1.0887         estimate D2E/DX2                !
 ! R18   R(13,14)                1.395          estimate D2E/DX2                !
 ! R19   R(13,18)                1.0865         estimate D2E/DX2                !
 ! R20   R(14,15)                1.3975         estimate D2E/DX2                !
 ! R21   R(14,19)                1.0858         estimate D2E/DX2                !
 ! R22   R(15,16)                1.3936         estimate D2E/DX2                !
 ! R23   R(15,20)                1.0865         estimate D2E/DX2                !
 ! R24   R(16,21)                1.0855         estimate D2E/DX2                !
 ! R25   R(22,23)                0.9703         estimate D2E/DX2                !
 ! R26   R(22,26)                1.9438         estimate D2E/DX2                !
 ! R27   R(25,26)                0.9767         estimate D2E/DX2                !
 ! A1    A(2,1,6)              120.7528         estimate D2E/DX2                !
 ! A2    A(2,1,7)              119.9622         estimate D2E/DX2                !
 ! A3    A(6,1,7)              119.2851         estimate D2E/DX2                !
 ! A4    A(1,2,3)              119.1316         estimate D2E/DX2                !
 ! A5    A(1,2,8)              120.4359         estimate D2E/DX2                !
 ! A6    A(3,2,8)              120.4325         estimate D2E/DX2                !
 ! A7    A(2,3,4)              120.7322         estimate D2E/DX2                !
 ! A8    A(2,3,9)              120.0791         estimate D2E/DX2                !
 ! A9    A(4,3,9)              119.1887         estimate D2E/DX2                !
 ! A10   A(3,4,5)              119.8208         estimate D2E/DX2                !
 ! A11   A(3,4,24)             120.4538         estimate D2E/DX2                !
 ! A12   A(5,4,24)             119.7254         estimate D2E/DX2                !
 ! A13   A(4,5,6)              119.6676         estimate D2E/DX2                !
 ! A14   A(4,5,25)             122.8747         estimate D2E/DX2                !
 ! A15   A(6,5,25)             117.4577         estimate D2E/DX2                !
 ! A16   A(1,6,5)              119.8951         estimate D2E/DX2                !
 ! A17   A(1,6,10)             121.4553         estimate D2E/DX2                !
 ! A18   A(5,6,10)             118.6496         estimate D2E/DX2                !
 ! A19   A(12,11,16)           120.6596         estimate D2E/DX2                !
 ! A20   A(12,11,22)           121.8999         estimate D2E/DX2                !
 ! A21   A(16,11,22)           117.4401         estimate D2E/DX2                !
 ! A22   A(11,12,13)           119.4701         estimate D2E/DX2                !
 ! A23   A(11,12,17)           120.1483         estimate D2E/DX2                !
 ! A24   A(13,12,17)           120.3816         estimate D2E/DX2                !
 ! A25   A(12,13,14)           120.4574         estimate D2E/DX2                !
 ! A26   A(12,13,18)           119.2901         estimate D2E/DX2                !
 ! A27   A(14,13,18)           120.2525         estimate D2E/DX2                !
 ! A28   A(13,14,15)           119.4413         estimate D2E/DX2                !
 ! A29   A(13,14,19)           120.2636         estimate D2E/DX2                !
 ! A30   A(15,14,19)           120.2951         estimate D2E/DX2                !
 ! A31   A(14,15,16)           120.7253         estimate D2E/DX2                !
 ! A32   A(14,15,20)           120.0593         estimate D2E/DX2                !
 ! A33   A(16,15,20)           119.2154         estimate D2E/DX2                !
 ! A34   A(11,16,15)           119.2463         estimate D2E/DX2                !
 ! A35   A(11,16,21)           119.446          estimate D2E/DX2                !
 ! A36   A(15,16,21)           121.3076         estimate D2E/DX2                !
 ! A37   A(11,22,23)           109.1929         estimate D2E/DX2                !
 ! A38   A(11,22,26)           125.6408         estimate D2E/DX2                !
 ! A39   A(23,22,26)           114.1913         estimate D2E/DX2                !
 ! A40   A(5,25,26)            110.0767         estimate D2E/DX2                !
 ! A41   L(22,26,25,4,-1)      187.3122         estimate D2E/DX2                !
 ! A42   L(22,26,25,4,-2)      175.6248         estimate D2E/DX2                !
 ! D1    D(6,1,2,3)             -0.0187         estimate D2E/DX2                !
 ! D2    D(6,1,2,8)           -179.9947         estimate D2E/DX2                !
 ! D3    D(7,1,2,3)            179.98           estimate D2E/DX2                !
 ! D4    D(7,1,2,8)              0.004          estimate D2E/DX2                !
 ! D5    D(2,1,6,5)             -0.002          estimate D2E/DX2                !
 ! D6    D(2,1,6,10)           179.9922         estimate D2E/DX2                !
 ! D7    D(7,1,6,5)            179.9994         estimate D2E/DX2                !
 ! D8    D(7,1,6,10)            -0.0065         estimate D2E/DX2                !
 ! D9    D(1,2,3,4)              0.0176         estimate D2E/DX2                !
 ! D10   D(1,2,3,9)           -179.9519         estimate D2E/DX2                !
 ! D11   D(8,2,3,4)            179.9936         estimate D2E/DX2                !
 ! D12   D(8,2,3,9)              0.0241         estimate D2E/DX2                !
 ! D13   D(2,3,4,5)              0.0041         estimate D2E/DX2                !
 ! D14   D(2,3,4,24)          -179.9064         estimate D2E/DX2                !
 ! D15   D(9,3,4,5)            179.9739         estimate D2E/DX2                !
 ! D16   D(9,3,4,24)             0.0634         estimate D2E/DX2                !
 ! D17   D(3,4,5,6)             -0.0248         estimate D2E/DX2                !
 ! D18   D(3,4,5,25)           179.9906         estimate D2E/DX2                !
 ! D19   D(24,4,5,6)           179.8863         estimate D2E/DX2                !
 ! D20   D(24,4,5,25)           -0.0983         estimate D2E/DX2                !
 ! D21   D(4,5,6,1)              0.0238         estimate D2E/DX2                !
 ! D22   D(4,5,6,10)          -179.9705         estimate D2E/DX2                !
 ! D23   D(25,5,6,1)          -179.9908         estimate D2E/DX2                !
 ! D24   D(25,5,6,10)            0.0149         estimate D2E/DX2                !
 ! D25   D(4,5,25,26)           -0.395          estimate D2E/DX2                !
 ! D26   D(6,5,25,26)          179.6201         estimate D2E/DX2                !
 ! D27   D(16,11,12,13)         -0.0186         estimate D2E/DX2                !
 ! D28   D(16,11,12,17)        179.9559         estimate D2E/DX2                !
 ! D29   D(22,11,12,13)        179.7584         estimate D2E/DX2                !
 ! D30   D(22,11,12,17)         -0.2671         estimate D2E/DX2                !
 ! D31   D(12,11,16,15)         -0.019          estimate D2E/DX2                !
 ! D32   D(12,11,16,21)       -179.8906         estimate D2E/DX2                !
 ! D33   D(22,11,16,15)       -179.8056         estimate D2E/DX2                !
 ! D34   D(22,11,16,21)          0.3228         estimate D2E/DX2                !
 ! D35   D(12,11,22,23)          1.2922         estimate D2E/DX2                !
 ! D36   D(12,11,22,26)        142.8745         estimate D2E/DX2                !
 ! D37   D(16,11,22,23)       -178.924          estimate D2E/DX2                !
 ! D38   D(16,11,22,26)        -37.3418         estimate D2E/DX2                !
 ! D39   D(11,12,13,14)          0.0241         estimate D2E/DX2                !
 ! D40   D(11,12,13,18)        179.9812         estimate D2E/DX2                !
 ! D41   D(17,12,13,14)       -179.9504         estimate D2E/DX2                !
 ! D42   D(17,12,13,18)          0.0068         estimate D2E/DX2                !
 ! D43   D(12,13,14,15)          0.008          estimate D2E/DX2                !
 ! D44   D(12,13,14,19)        179.9582         estimate D2E/DX2                !
 ! D45   D(18,13,14,15)       -179.9487         estimate D2E/DX2                !
 ! D46   D(18,13,14,19)          0.0014         estimate D2E/DX2                !
 ! D47   D(13,14,15,16)         -0.0463         estimate D2E/DX2                !
 ! D48   D(13,14,15,20)        179.9285         estimate D2E/DX2                !
 ! D49   D(19,14,15,16)       -179.9965         estimate D2E/DX2                !
 ! D50   D(19,14,15,20)         -0.0217         estimate D2E/DX2                !
 ! D51   D(14,15,16,11)          0.0517         estimate D2E/DX2                !
 ! D52   D(14,15,16,21)        179.9208         estimate D2E/DX2                !
 ! D53   D(20,15,16,11)       -179.9233         estimate D2E/DX2                !
 ! D54   D(20,15,16,21)         -0.0542         estimate D2E/DX2                !
 ! D55   D(11,22,25,5)         122.589          estimate D2E/DX2                !
 ! D56   D(23,22,25,5)        -100.3898         estimate D2E/DX2                !
 --------------------------------------------------------------------------------
 Trust Radius=3.00D-01 FncErr=1.00D-07 GrdErr=1.00D-06 EigMax=2.50D+02 EigMin=1.00D-04
 Number of steps in this run=    135 maximum allowed number of steps=    156.
 GradGradGradGradGradGradGradGradGradGradGradGradGradGradGradGradGradGrad

 Leave Link  103 at Tue Dec 18 12:14:58 2018, MaxMem=   268435456 cpu:               0.1 elap:               0.0
 (Enter /home/apps/g16/g16/l202.exe)
                          Input orientation:                          
 ---------------------------------------------------------------------
 Center     Atomic      Atomic             Coordinates (Angstroms)
 Number     Number       Type             X           Y           Z
 ---------------------------------------------------------------------
      1          6           0       -4.717210    0.171750    0.620670
      2          6           0       -4.701810    0.646840   -0.694300
      3          6           0       -3.506950    0.615090   -1.414020
      4          6           0       -2.338560    0.116560   -0.835220
      5          6           0       -2.361620   -0.358440    0.483290
      6          6           0       -3.559280   -0.328310    1.210670
      7          1           0       -5.640810    0.190460    1.194000
      8          1           0       -5.608060    1.035890   -1.149430
      9          1           0       -3.477280    0.981340   -2.437390
     10          1           0       -3.558240   -0.699970    2.230890
     11          6           0        2.341010   -0.411590   -0.273640
     12          6           0        3.556230   -1.059920   -0.502290
     13          6           0        4.751700   -0.401990   -0.207820
     14          6           0        4.736990    0.892710    0.311340
     15          6           0        3.513140    1.528970    0.535660
     16          6           0        2.311980    0.884640    0.245640
     17          1           0        3.569130   -2.070630   -0.906660
     18          1           0        5.695700   -0.909380   -0.386610
     19          1           0        5.668730    1.401270    0.539890
     20          1           0        3.489940    2.536860    0.940780
     21          1           0        1.356040    1.369440    0.417340
     22          8           0        1.130010   -1.012880   -0.551130
     23          1           0        1.288520   -1.909140   -0.887490
     24          1           0       -1.409440    0.095340   -1.399800
     25          8           0       -1.259510   -0.857810    1.108570
     26          1           0       -0.491900   -0.833760    0.505110
 ---------------------------------------------------------------------
                    Distance matrix (angstroms):
                    1          2          3          4          5
     1  C    0.000000
     2  C    1.398247   0.000000
     3  C    2.408577   1.395240   0.000000
     4  C    2.789379   2.426109   1.395950   0.000000
     5  C    2.418425   2.806028   2.420605   1.401651   0.000000
     6  C    1.392466   2.425944   2.789577   2.423578   1.401563
     7  H    1.087242   2.157703   3.396386   3.876603   3.399925
     8  H    2.161852   1.086182   2.159107   3.410795   3.892211
     9  H    3.397734   2.156322   1.087339   2.147435   3.401482
    10  H    2.167006   3.417365   3.875227   3.399319   2.145378
    11  C    7.138525   7.134321   6.045922   4.742646   4.763454
    12  C    8.439660   8.434757   7.316107   6.020257   6.040231
    13  C    9.522386   9.523947   8.408012   7.136828   7.146947
    14  C    9.486694   9.495405   8.427128   7.209745   7.210077
    15  C    8.341938   8.353224   7.342894   6.173865   6.170726
    16  C    7.075194   7.080486   6.056986   4.835879   4.841928
    17  H    8.719199   8.708512   7.585606   6.299977   6.327507
    18  H   10.517231  10.517828   9.384474   8.111913   8.122848
    19  H   10.458776  10.470935   9.414295   8.225454   8.221089
    20  H    8.547136   8.564487   7.628549   6.556176   6.544678
    21  H    6.193559   6.201245   5.250866   4.097400   4.100112
    22  O    6.080004   6.065088   4.989616   3.658869   3.699973
    23  H    6.532491   6.515705   5.444768   4.154745   4.196097
    24  H    3.876787   3.411976   2.160993   1.087412   2.158377
    25  O    3.640567   4.166982   3.685632   2.427358   1.361981
    26  H    4.344842   4.621050   3.856521   2.471790   1.929315
                    6          7          8          9         10
     6  C    0.000000
     7  H    2.145266   0.000000
     8  H    3.410075   2.491483   0.000000
     9  H    3.876886   4.300389   2.490390   0.000000
    10  H    1.085809   2.491005   4.317584   4.962479   0.000000
    11  C    6.084697   8.137929   8.127110   6.361962   6.415371
    12  C    7.355268   9.435380   9.423132   7.575065   7.629910
    13  C    8.431485  10.503350  10.501369   8.637169   8.665518
    14  C    8.433729  10.438916  10.448656   8.662425   8.662110
    15  C    7.343313   9.274687   9.288646   7.616095   7.605682
    16  C    6.072415   8.039163   8.043390   6.381499   6.396225
    17  H    7.637604   9.713305   9.691760   7.830041   7.907106
    18  H    9.409761  11.498888  11.495258   9.587705   9.619281
    19  H    9.412628  11.392963  11.408475   9.627566   9.613099
    20  H    7.614036   9.430817   9.454919   7.897710   7.862461
    21  H    5.260428   7.137864   7.145958   5.626819   5.632190
    22  O    5.055889   7.094893   7.068027   5.363023   5.460516
    23  H    5.513843   7.533693   7.503641   5.785319   5.888758
    24  H    3.408203   4.964004   4.309957   2.477408   4.293224
    25  O    2.362147   4.505769   5.253052   4.568896   2.562943
    26  H    3.187807   5.294797   5.692819   4.567865   3.521173
                   11         12         13         14         15
    11  C    0.000000
    12  C    1.396199   0.000000
    13  C    2.411607   1.395970   0.000000
    14  C    2.790004   2.422592   1.394988   0.000000
    15  C    2.407203   2.789543   2.411514   1.397482   0.000000
    16  C    1.396677   2.426700   2.795224   2.425913   1.393577
    17  H    2.159029   1.088676   2.161298   3.410103   3.878214
    18  H    3.393303   2.147877   1.086530   2.157264   3.399956
    19  H    3.875824   3.406795   2.156794   1.085821   2.159373
    20  H    3.389427   3.876038   3.398258   2.157442   1.086509
    21  H    2.149346   3.404166   3.880631   3.416040   2.166225
    22  O    1.380243   2.427167   3.688860   4.169584   3.649852
    23  H    1.930597   2.451951   3.837586   4.602119   4.335307
    24  H    3.948555   5.176681   6.295062   6.429806   5.480246
    25  O    3.882443   5.082034   6.170519   6.297453   5.366855
    26  H    2.968174   4.177722   5.309429   5.509949   4.650137
                   16         17         18         19         20
    16  C    0.000000
    17  H    3.412014   0.000000
    18  H    3.881728   2.478155   0.000000
    19  H    3.408997   4.307542   2.489625   0.000000
    20  H    2.144910   4.964702   4.301617   2.489458   0.000000
    21  H    1.085511   4.299398   4.967092   4.314548   2.488049
    22  O    2.373284   2.682265   4.569825   5.255323   4.516162
    23  H    3.183812   2.286401   4.546827   5.672959   5.287319
    24  H    4.144808   5.451676   7.247001   7.454418   5.953424
    25  O    4.066488   5.371019   7.114293   7.309401   5.840309
    26  H    3.298783   4.473802   6.251982   6.553620   5.235068
                   21         22         23         24         25
    21  H    0.000000
    22  O    2.581564   0.000000
    23  H    3.529338   0.970333   0.000000
    24  H    3.545872   2.897792   3.399910   0.000000
    25  O    3.504218   2.913496   3.403235   2.687544   0.000000
    26  H    2.876921   1.943790   2.503132   2.309500   0.976713
                   26
    26  H    0.000000
 Stoichiometry    C12H12O2
 Framework group  C1[X(C12H12O2)]
 Deg. of freedom    72
 Full point group                 C1      NOp   1
 Largest Abelian subgroup         C1      NOp   1
 Largest concise Abelian subgroup C1      NOp   1
                         Standard orientation:                         
 ---------------------------------------------------------------------
 Center     Atomic      Atomic             Coordinates (Angstroms)
 Number     Number       Type             X           Y           Z
 ---------------------------------------------------------------------
      1          6           0        4.717211    0.171748   -0.620670
      2          6           0        4.701811    0.646838    0.694300
      3          6           0        3.506951    0.615088    1.414020
      4          6           0        2.338561    0.116559    0.835220
      5          6           0        2.361620   -0.358441   -0.483290
      6          6           0        3.559280   -0.328312   -1.210670
      7          1           0        5.640811    0.190457   -1.194000
      8          1           0        5.608061    1.035887    1.149430
      9          1           0        3.477281    0.981338    2.437390
     10          1           0        3.558240   -0.699972   -2.230890
     11          6           0       -2.341010   -0.411590    0.273640
     12          6           0       -3.556230   -1.059919    0.502290
     13          6           0       -4.751700   -0.401989    0.207820
     14          6           0       -4.736989    0.892711   -0.311340
     15          6           0       -3.513139    1.528971   -0.535660
     16          6           0       -2.311979    0.884640   -0.245640
     17          1           0       -3.569130   -2.070629    0.906660
     18          1           0       -5.695700   -0.909379    0.386610
     19          1           0       -5.668729    1.401271   -0.539890
     20          1           0       -3.489939    2.536861   -0.940780
     21          1           0       -1.356039    1.369440   -0.417340
     22          8           0       -1.130010   -1.012880    0.551130
     23          1           0       -1.288520   -1.909140    0.887490
     24          1           0        1.409441    0.095339    1.399800
     25          8           0        1.259510   -0.857811   -1.108570
     26          1           0        0.491900   -0.833761   -0.505110
 ---------------------------------------------------------------------
 Rotational constants (GHZ):           2.0662124           0.2215477           0.2203686
 Leave Link  202 at Tue Dec 18 12:15:01 2018, MaxMem=   268435456 cpu:               0.1 elap:               0.1
 (Enter /home/apps/g16/g16/l301.exe)
 General basis read from cards:  (5D, 7F)
 Centers:       7      8      9     10     17     18     19     20     21     23
 Centers:      24     26
 6-31G
 P 1 1.00 0.000000000000
     Exponent=  7.5000000000D-01 Coefficients=  1.0000000000D+00
 ****
 Centers:       1      2      3      4      5      6     11     12     13     14
 Centers:      15     16
 6-31G
 S 1 1.00 0.000000000000
     Exponent=  7.5000000000D+00 Coefficients=  1.0000000000D+00
 P 1 1.00 0.000000000000
     Exponent=  5.0000000000D-02 Coefficients=  1.0000000000D+00
 D 1 1.00 0.000000000000
     Exponent=  8.2000000000D-01 Coefficients=  1.0000000000D+00
 ****
 Centers:      22     25
 6-31G
 S 1 1.00
     Exponent=  1.5100000000D+01 Coefficients=  1.0000000000D+00
 P 1 1.00 0.000000000000
     Exponent=  6.5000000000D-02 Coefficients=  1.0000000000D+00
 D 1 1.00 0.000000000000
     Exponent=  1.1900000000D+00 Coefficients=  1.0000000000D+00
 D 1 1.00 0.000000000000
     Exponent=  1.8000000000D-01 Coefficients=  1.0000000000D+00
 ****
 Ernie: Thresh=  0.10000D-02 Tol=  0.10000D-05 Strict=F.
 There are   338 symmetry adapted cartesian basis functions of A   symmetry.
 There are   322 symmetry adapted basis functions of A   symmetry.
   322 basis functions,   544 primitive gaussians,   338 cartesian basis functions
    50 alpha electrons       50 beta electrons
       nuclear repulsion energy       763.5154198201 Hartrees.
 IExCor=  402 DFT=T Ex+Corr=B3LYP ExCW=0 ScaHFX=  0.200000
 ScaDFX=  0.800000  0.720000  1.000000  0.810000 ScalE2=  1.000000  1.000000
 IRadAn=      5 IRanWt=     -1 IRanGd=            0 ICorTp=0 IEmpDi=131
 NAtoms=   26 NActive=   26 NUniq=   26 SFac= 1.00D+00 NAtFMM=   60 NAOKFM=F Big=F
 Integral buffers will be    131072 words long.
 Raffenetti 2 integral format.
 Two-electron integral symmetry is turned on.
 R6Disp:  Grimme-D3 Dispersion energy=       -0.0166356061 Hartrees.
 Nuclear repulsion after empirical dispersion term =      763.4987842141 Hartrees.
 Leave Link  301 at Tue Dec 18 12:15:01 2018, MaxMem=   268435456 cpu:               1.3 elap:               0.2
 (Enter /home/apps/g16/g16/l302.exe)
 NPDir=0 NMtPBC=     1 NCelOv=     1 NCel=       1 NClECP=     1 NCelD=      1
         NCelK=      1 NCelE2=     1 NClLst=     1 CellRange=     0.0.
 One-electron integrals computed using PRISM.
 One-electron integral symmetry used in STVInt
 NBasis=   322 RedAO= T EigKep=  2.10D-05  NBF=   322
 NBsUse=   322 1.00D-06 EigRej= -1.00D+00 NBFU=   322
 Precomputing XC quadrature grid using
 IXCGrd= 4 IRadAn=           5 IRanWt=          -1 IRanGd=           0 AccXCQ= 0.00D+00.
 Generated NRdTot=       0 NPtTot=           0 NUsed=           0 NTot=          32
 NSgBfM=   330   330   330   330   330 MxSgAt=    26 MxSgA2=    26.
 Leave Link  302 at Tue Dec 18 12:15:04 2018, MaxMem=   268435456 cpu:               6.5 elap:               1.3
 (Enter /home/apps/g16/g16/l303.exe)
 DipDrv:  MaxL=1.
 Leave Link  303 at Tue Dec 18 12:15:04 2018, MaxMem=   268435456 cpu:               0.8 elap:               0.1
 (Enter /home/apps/g16/g16/l401.exe)
 ExpMin= 5.00D-02 ExpMax= 5.48D+03 ExpMxC= 8.25D+02 IAcc=3 IRadAn=         5 AccDes= 0.00D+00
 Harris functional with IExCor=  402 and IRadAn=       5 diagonalized for initial guess.
 HarFok:  IExCor=  402 AccDes= 0.00D+00 IRadAn=         5 IDoV= 1 UseB2=F ITyADJ=14
 ICtDFT=  3500011 ScaDFX=  1.000000  1.000000  1.000000  1.000000
 FoFCou: FMM=F IPFlag=           0 FMFlag=      100000 FMFlg1=           0
         NFxFlg=           0 DoJE=T BraDBF=F KetDBF=T FulRan=T
         wScrn=  0.000000 ICntrl=       500 IOpCl=  0 I1Cent=   200000004 NGrid=           0
         NMat0=    1 NMatS0=      1 NMatT0=    0 NMatD0=    1 NMtDS0=    0 NMtDT0=    0
 Petite list used in FoFCou.
 Harris En= -615.034176331615    
 JPrj=0 DoOrth=F DoCkMO=F.
 Leave Link  401 at Tue Dec 18 12:15:11 2018, MaxMem=   268435456 cpu:              39.3 elap:               5.0
 (Enter /home/apps/g16/g16/l502.exe)
 Integral symmetry usage will be decided dynamically.
 Closed shell SCF:
 Using DIIS extrapolation, IDIIS=  1040.
 NGot=   268435456 LenX=   268200866 LenY=   268086181
 Requested convergence on RMS density matrix=1.00D-08 within 128 cycles.
 Requested convergence on MAX density matrix=1.00D-06.
 Requested convergence on             energy=1.00D-06.
 No special actions if energy rises.
 Fock matrices will be formed incrementally for  20 cycles.
 Integral accuracy reduced to 1.0D-05 until final iterations.

 Cycle   1  Pass 0  IDiag  1:
 FoFJK:  IHMeth= 1 ICntrl=       0 DoSepK=F KAlg= 0 I1Cent=           0 FoldK=F
 IRaf= 770000000 NMat=       1 IRICut=       1 DoRegI=T DoRafI=F ISym2E= 0 IDoP0=0 IntGTp=1.
 FoFCou: FMM=F IPFlag=           0 FMFlag=      100000 FMFlg1=           0
         NFxFlg=           0 DoJE=F BraDBF=F KetDBF=F FulRan=T
         wScrn=  0.000000 ICntrl=         0 IOpCl=  0 I1Cent=           0 NGrid=           0
         NMat0=    1 NMatS0=      1 NMatT0=    0 NMatD0=    1 NMtDS0=    0 NMtDT0=    0
 Symmetry not used in FoFCou.
 E= -614.663136295853    
 DIIS: error= 2.01D-02 at cycle   1 NSaved=   1.
 NSaved= 1 IEnMin= 1 EnMin= -614.663136295853     IErMin= 1 ErrMin= 2.01D-02
 ErrMax= 2.01D-02  0.00D+00 EMaxC= 1.00D-01 BMatC= 3.17D-01 BMatP= 3.17D-01
 IDIUse=3 WtCom= 7.99D-01 WtEn= 2.01D-01
 Coeff-Com:  0.100D+01
 Coeff-En:   0.100D+01
 Coeff:      0.100D+01
 Gap=     0.201 Goal=   None    Shift=    0.000
 GapD=    0.201 DampG=1.000 DampE=0.500 DampFc=0.5000 IDamp=-1.
 Damping current iteration by 5.00D-01
 RMSDP=4.38D-03 MaxDP=1.02D-01              OVMax= 2.21D-01

 Cycle   2  Pass 0  IDiag  1:
 RMSU=  2.15D-03    CP:  9.75D-01
 E= -614.808253714607     Delta-E=       -0.145117418754 Rises=F Damp=T
 DIIS: error= 4.12D-03 at cycle   2 NSaved=   2.
 NSaved= 2 IEnMin= 2 EnMin= -614.808253714607     IErMin= 2 ErrMin= 4.12D-03
 ErrMax= 4.12D-03  0.00D+00 EMaxC= 1.00D-01 BMatC= 1.64D-02 BMatP= 3.17D-01
 IDIUse=3 WtCom= 9.59D-01 WtEn= 4.12D-02
 Coeff-Com:  0.767D-01 0.923D+00
 Coeff-En:   0.149D+00 0.851D+00
 Coeff:      0.797D-01 0.920D+00
 Gap=     0.221 Goal=   None    Shift=    0.000
 RMSDP=1.43D-03 MaxDP=3.45D-02 DE=-1.45D-01 OVMax= 1.55D-01

 Cycle   3  Pass 0  IDiag  1:
 RMSU=  1.33D-03    CP:  9.62D-01  7.70D-01
 E= -614.996197668125     Delta-E=       -0.187943953517 Rises=F Damp=F
 DIIS: error= 5.05D-03 at cycle   3 NSaved=   3.
 NSaved= 3 IEnMin= 3 EnMin= -614.996197668125     IErMin= 2 ErrMin= 4.12D-03
 ErrMax= 5.05D-03  0.00D+00 EMaxC= 1.00D-01 BMatC= 9.76D-03 BMatP= 1.64D-02
 IDIUse=3 WtCom= 9.50D-01 WtEn= 5.05D-02
 Coeff-Com: -0.676D-02 0.420D+00 0.587D+00
 Coeff-En:   0.000D+00 0.000D+00 0.100D+01
 Coeff:     -0.642D-02 0.399D+00 0.608D+00
 Gap=     0.191 Goal=   None    Shift=    0.000
 RMSDP=5.53D-04 MaxDP=2.31D-02 DE=-1.88D-01 OVMax= 6.00D-02

 Cycle   4  Pass 0  IDiag  1:
 RMSU=  4.64D-04    CP:  9.63D-01  8.45D-01  8.09D-01
 E= -615.001875346713     Delta-E=       -0.005677678589 Rises=F Damp=F
 DIIS: error= 3.91D-03 at cycle   4 NSaved=   4.
 NSaved= 4 IEnMin= 4 EnMin= -615.001875346713     IErMin= 4 ErrMin= 3.91D-03
 ErrMax= 3.91D-03  0.00D+00 EMaxC= 1.00D-01 BMatC= 4.59D-03 BMatP= 9.76D-03
 IDIUse=3 WtCom= 9.61D-01 WtEn= 3.91D-02
 Coeff-Com: -0.188D-01 0.126D+00 0.418D+00 0.475D+00
 Coeff-En:   0.000D+00 0.000D+00 0.354D+00 0.646D+00
 Coeff:     -0.181D-01 0.121D+00 0.415D+00 0.482D+00
 Gap=     0.189 Goal=   None    Shift=    0.000
 RMSDP=2.65D-04 MaxDP=8.56D-03 DE=-5.68D-03 OVMax= 2.60D-02

 Cycle   5  Pass 0  IDiag  1:
 RMSU=  1.30D-04    CP:  9.63D-01  8.42D-01  8.13D-01  5.02D-01
 E= -615.007147321017     Delta-E=       -0.005271974303 Rises=F Damp=F
 DIIS: error= 3.13D-04 at cycle   5 NSaved=   5.
 NSaved= 5 IEnMin= 5 EnMin= -615.007147321017     IErMin= 5 ErrMin= 3.13D-04
 ErrMax= 3.13D-04  0.00D+00 EMaxC= 1.00D-01 BMatC= 5.55D-05 BMatP= 4.59D-03
 IDIUse=3 WtCom= 9.97D-01 WtEn= 3.13D-03
 Coeff-Com: -0.624D-02 0.122D-01 0.899D-01 0.162D+00 0.742D+00
 Coeff-En:   0.000D+00 0.000D+00 0.000D+00 0.000D+00 0.100D+01
 Coeff:     -0.622D-02 0.122D-01 0.897D-01 0.161D+00 0.743D+00
 Gap=     0.189 Goal=   None    Shift=    0.000
 RMSDP=3.75D-05 MaxDP=1.20D-03 DE=-5.27D-03 OVMax= 3.02D-03

 Cycle   6  Pass 0  IDiag  1:
 RMSU=  3.01D-05    CP:  9.63D-01  8.47D-01  8.14D-01  5.39D-01  9.22D-01
 E= -615.007194697723     Delta-E=       -0.000047376706 Rises=F Damp=F
 DIIS: error= 1.08D-04 at cycle   6 NSaved=   6.
 NSaved= 6 IEnMin= 6 EnMin= -615.007194697723     IErMin= 6 ErrMin= 1.08D-04
 ErrMax= 1.08D-04  0.00D+00 EMaxC= 1.00D-01 BMatC= 1.47D-05 BMatP= 5.55D-05
 IDIUse=3 WtCom= 9.99D-01 WtEn= 1.08D-03
 Coeff-Com: -0.324D-02 0.313D-02 0.395D-01 0.799D-01 0.454D+00 0.427D+00
 Coeff-En:   0.000D+00 0.000D+00 0.000D+00 0.000D+00 0.118D+00 0.882D+00
 Coeff:     -0.324D-02 0.313D-02 0.395D-01 0.798D-01 0.454D+00 0.427D+00
 Gap=     0.189 Goal=   None    Shift=    0.000
 RMSDP=2.51D-05 MaxDP=5.95D-04 DE=-4.74D-05 OVMax= 1.10D-03

 Cycle   7  Pass 0  IDiag  1:
 RMSU=  2.47D-05    CP:  9.63D-01  8.47D-01  8.15D-01  5.35D-01  8.97D-01
                    CP:  9.21D-01
 E= -615.007207935762     Delta-E=       -0.000013238039 Rises=F Damp=F
 DIIS: error= 2.42D-05 at cycle   7 NSaved=   7.
 NSaved= 7 IEnMin= 7 EnMin= -615.007207935762     IErMin= 7 ErrMin= 2.42D-05
 ErrMax= 2.42D-05  0.00D+00 EMaxC= 1.00D-01 BMatC= 2.92D-07 BMatP= 1.47D-05
 IDIUse=1 WtCom= 1.00D+00 WtEn= 0.00D+00
 Coeff-Com: -0.757D-03 0.685D-04 0.881D-02 0.192D-01 0.127D+00 0.169D+00
 Coeff-Com:  0.676D+00
 Coeff:     -0.757D-03 0.685D-04 0.881D-02 0.192D-01 0.127D+00 0.169D+00
 Coeff:      0.676D+00
 Gap=     0.189 Goal=   None    Shift=    0.000
 RMSDP=2.06D-05 MaxDP=5.21D-04 DE=-1.32D-05 OVMax= 2.98D-04

 Cycle   8  Pass 0  IDiag  1:
 RMSU=  9.60D-06    CP:  9.63D-01  8.48D-01  8.12D-01  5.32D-01  8.95D-01
                    CP:  1.09D+00  1.69D+00
 E= -615.007207892834     Delta-E=        0.000000042928 Rises=F Damp=F
 DIIS: error= 1.51D-05 at cycle   8 NSaved=   8.
 NSaved= 8 IEnMin= 7 EnMin= -615.007207935762     IErMin= 8 ErrMin= 1.51D-05
 ErrMax= 1.51D-05  0.00D+00 EMaxC= 1.00D-01 BMatC= 9.99D-08 BMatP= 2.92D-07
 IDIUse=1 WtCom= 1.00D+00 WtEn= 0.00D+00
 Coeff-Com: -0.149D-03-0.320D-03 0.161D-02 0.429D-02 0.363D-01 0.623D-01
 Coeff-Com:  0.417D+00 0.479D+00
 Coeff:     -0.149D-03-0.320D-03 0.161D-02 0.429D-02 0.363D-01 0.623D-01
 Coeff:      0.417D+00 0.479D+00
 Gap=     0.189 Goal=   None    Shift=    0.000
 RMSDP=3.80D-05 MaxDP=1.01D-03 DE= 4.29D-08 OVMax= 1.37D-04

 Cycle   9  Pass 0  IDiag  1:
 RMSU=  8.93D-06    CP:  9.63D-01  8.50D-01  8.07D-01  5.25D-01  8.72D-01
                    CP:  1.26D+00  2.99D+00  2.55D+00
 E= -615.007207884182     Delta-E=        0.000000008652 Rises=F Damp=F
 DIIS: error= 2.31D-05 at cycle   9 NSaved=   9.
 NSaved= 9 IEnMin= 7 EnMin= -615.007207935762     IErMin= 8 ErrMin= 1.51D-05
 ErrMax= 2.31D-05  0.00D+00 EMaxC= 1.00D-01 BMatC= 1.74D-08 BMatP= 9.99D-08
 IDIUse=1 WtCom= 1.00D+00 WtEn= 0.00D+00
 Coeff-Com: -0.946D-04-0.239D-03 0.102D-02 0.281D-02 0.245D-01 0.428D-01
 Coeff-Com:  0.298D+00 0.362D+00 0.269D+00
 Coeff:     -0.946D-04-0.239D-03 0.102D-02 0.281D-02 0.245D-01 0.428D-01
 Coeff:      0.298D+00 0.362D+00 0.269D+00
 Gap=     0.189 Goal=   None    Shift=    0.000
 RMSDP=4.19D-05 MaxDP=1.11D-03 DE= 8.65D-09 OVMax= 1.94D-05

 Problem detected with inexpensive integrals.
 Switching to full accuracy and repeating last cycle.
 Cycle  10  Pass 1  IDiag  1:
 E= -615.007182273390     Delta-E=        0.000025610792 Rises=F Damp=F
 DIIS: error= 6.57D-05 at cycle   1 NSaved=   1.
 NSaved= 1 IEnMin= 1 EnMin= -615.007182273390     IErMin= 1 ErrMin= 6.57D-05
 ErrMax= 6.57D-05  0.00D+00 EMaxC= 1.00D-01 BMatC= 4.51D-07 BMatP= 4.51D-07
 IDIUse=1 WtCom= 1.00D+00 WtEn= 0.00D+00
 Coeff-Com:  0.100D+01
 Coeff:      0.100D+01
 Gap=     0.189 Goal=   None    Shift=    0.000
 RMSDP=2.53D-04 MaxDP=5.85D-03 DE= 2.56D-05 OVMax= 1.71D-04

 Cycle  11  Pass 1  IDiag  1:
 RMSU=  2.53D-04    CP:  1.00D+00
 E= -615.007182840046     Delta-E=       -0.000000566656 Rises=F Damp=F
 DIIS: error= 4.18D-06 at cycle   2 NSaved=   2.
 NSaved= 2 IEnMin= 2 EnMin= -615.007182840046     IErMin= 2 ErrMin= 4.18D-06
 ErrMax= 4.18D-06  0.00D+00 EMaxC= 1.00D-01 BMatC= 8.93D-09 BMatP= 4.51D-07
 IDIUse=1 WtCom= 1.00D+00 WtEn= 0.00D+00
 Coeff-Com:  0.193D-01 0.981D+00
 Coeff:      0.193D-01 0.981D+00
 Gap=     0.189 Goal=   None    Shift=    0.000
 RMSDP=4.91D-06 MaxDP=1.19D-04 DE=-5.67D-07 OVMax= 1.01D-04

 Cycle  12  Pass 1  IDiag  1:
 RMSU=  1.87D-06    CP:  1.00D+00  1.02D+00
 E= -615.007182817926     Delta-E=        0.000000022119 Rises=F Damp=F
 DIIS: error= 8.14D-06 at cycle   3 NSaved=   3.
 NSaved= 3 IEnMin= 2 EnMin= -615.007182840046     IErMin= 2 ErrMin= 4.18D-06
 ErrMax= 8.14D-06  0.00D+00 EMaxC= 1.00D-01 BMatC= 2.84D-08 BMatP= 8.93D-09
 IDIUse=1 WtCom= 1.00D+00 WtEn= 0.00D+00
 Coeff-Com: -0.649D-02 0.646D+00 0.361D+00
 Coeff:     -0.649D-02 0.646D+00 0.361D+00
 Gap=     0.189 Goal=   None    Shift=    0.000
 RMSDP=5.95D-07 MaxDP=2.13D-05 DE= 2.21D-08 OVMax= 6.78D-05

 Cycle  13  Pass 1  IDiag  1:
 RMSU=  5.49D-07    CP:  1.00D+00  1.02D+00  9.18D-01
 E= -615.007182850170     Delta-E=       -0.000000032243 Rises=F Damp=F
 DIIS: error= 4.67D-07 at cycle   4 NSaved=   4.
 NSaved= 4 IEnMin= 4 EnMin= -615.007182850170     IErMin= 4 ErrMin= 4.67D-07
 ErrMax= 4.67D-07  0.00D+00 EMaxC= 1.00D-01 BMatC= 1.49D-10 BMatP= 8.93D-09
 IDIUse=1 WtCom= 1.00D+00 WtEn= 0.00D+00
 Coeff-Com: -0.349D-02 0.313D+00 0.182D+00 0.508D+00
 Coeff:     -0.349D-02 0.313D+00 0.182D+00 0.508D+00
 Gap=     0.189 Goal=   None    Shift=    0.000
 RMSDP=5.88D-08 MaxDP=1.91D-06 DE=-3.22D-08 OVMax= 4.05D-06

 Cycle  14  Pass 1  IDiag  1:
 RMSU=  5.13D-08    CP:  1.00D+00  1.02D+00  9.28D-01  9.84D-01
 E= -615.007182850297     Delta-E=       -0.000000000127 Rises=F Damp=F
 DIIS: error= 1.13D-07 at cycle   5 NSaved=   5.
 NSaved= 5 IEnMin= 5 EnMin= -615.007182850297     IErMin= 5 ErrMin= 1.13D-07
 ErrMax= 1.13D-07  0.00D+00 EMaxC= 1.00D-01 BMatC= 1.59D-11 BMatP= 1.49D-10
 IDIUse=1 WtCom= 1.00D+00 WtEn= 0.00D+00
 Coeff-Com: -0.848D-03 0.677D-01 0.417D-01 0.263D+00 0.628D+00
 Coeff:     -0.848D-03 0.677D-01 0.417D-01 0.263D+00 0.628D+00
 Gap=     0.189 Goal=   None    Shift=    0.000
 RMSDP=2.96D-08 MaxDP=8.33D-07 DE=-1.27D-10 OVMax= 1.80D-06

 Cycle  15  Pass 1  IDiag  1:
 RMSU=  1.48D-08    CP:  1.00D+00  1.02D+00  9.36D-01  1.01D+00  8.62D-01
 E= -615.007182850319     Delta-E=       -0.000000000022 Rises=F Damp=F
 DIIS: error= 5.72D-08 at cycle   6 NSaved=   6.
 NSaved= 6 IEnMin= 6 EnMin= -615.007182850319     IErMin= 6 ErrMin= 5.72D-08
 ErrMax= 5.72D-08  0.00D+00 EMaxC= 1.00D-01 BMatC= 2.50D-12 BMatP= 1.59D-11
 IDIUse=1 WtCom= 1.00D+00 WtEn= 0.00D+00
 Coeff-Com: -0.109D-03 0.367D-02 0.341D-02 0.933D-01 0.358D+00 0.542D+00
 Coeff:     -0.109D-03 0.367D-02 0.341D-02 0.933D-01 0.358D+00 0.542D+00
 Gap=     0.189 Goal=   None    Shift=    0.000
 RMSDP=8.64D-09 MaxDP=3.05D-07 DE=-2.23D-11 OVMax= 5.35D-07

 SCF Done:  E(RB3LYP) =  -615.007182850     A.U. after   15 cycles
            NFock= 15  Conv=0.86D-08     -V/T= 2.0046
 KE= 6.121928539458D+02 PE=-2.959239619335D+03 EE= 9.685407983246D+02
 Leave Link  502 at Tue Dec 18 12:17:17 2018, MaxMem=   268435456 cpu:            1006.1 elap:             126.0
 (Enter /home/apps/g16/g16/l601.exe)
 Copying SCF densities to generalized density rwf, IOpCl= 0 IROHF=0.

 **********************************************************************

            Population analysis using the SCF density.

 **********************************************************************

 Orbital symmetries:
       Occupied  (A) (A) (A) (A) (A) (A) (A) (A) (A) (A) (A) (A)
                 (A) (A) (A) (A) (A) (A) (A) (A) (A) (A) (A) (A)
                 (A) (A) (A) (A) (A) (A) (A) (A) (A) (A) (A) (A)
                 (A) (A) (A) (A) (A) (A) (A) (A) (A) (A) (A) (A)
                 (A) (A)
       Virtual   (A) (A) (A) (A) (A) (A) (A) (A) (A) (A) (A) (A)
                 (A) (A) (A) (A) (A) (A) (A) (A) (A) (A) (A) (A)
                 (A) (A) (A) (A) (A) (A) (A) (A) (A) (A) (A) (A)
                 (A) (A) (A) (A) (A) (A) (A) (A) (A) (A) (A) (A)
                 (A) (A) (A) (A) (A) (A) (A) (A) (A) (A) (A) (A)
                 (A) (A) (A) (A) (A) (A) (A) (A) (A) (A) (A) (A)
                 (A) (A) (A) (A) (A) (A) (A) (A) (A) (A) (A) (A)
                 (A) (A) (A) (A) (A) (A) (A) (A) (A) (A) (A) (A)
                 (A) (A) (A) (A) (A) (A) (A) (A) (A) (A) (A) (A)
                 (A) (A) (A) (A) (A) (A) (A) (A) (A) (A) (A) (A)
                 (A) (A) (A) (A) (A) (A) (A) (A) (A) (A) (A) (A)
                 (A) (A) (A) (A) (A) (A) (A) (A) (A) (A) (A) (A)
                 (A) (A) (A) (A) (A) (A) (A) (A) (A) (A) (A) (A)
                 (A) (A) (A) (A) (A) (A) (A) (A) (A) (A) (A) (A)
                 (A) (A) (A) (A) (A) (A) (A) (A) (A) (A) (A) (A)
                 (A) (A) (A) (A) (A) (A) (A) (A) (A) (A) (A) (A)
                 (A) (A) (A) (A) (A) (A) (A) (A) (A) (A) (A) (A)
                 (A) (A) (A) (A) (A) (A) (A) (A) (A) (A) (A) (A)
                 (A) (A) (A) (A) (A) (A) (A) (A) (A) (A) (A) (A)
                 (A) (A) (A) (A) (A) (A) (A) (A) (A) (A) (A) (A)
                 (A) (A) (A) (A) (A) (A) (A) (A) (A) (A) (A) (A)
                 (A) (A) (A) (A) (A) (A) (A) (A) (A) (A) (A) (A)
                 (A) (A) (A) (A) (A) (A) (A) (A)
 The electronic state is 1-A.
 Alpha  occ. eigenvalues --  -19.21215 -19.16571 -10.26674 -10.23977 -10.20629
 Alpha  occ. eigenvalues --  -10.20563 -10.20418 -10.19980 -10.19677 -10.18494
 Alpha  occ. eigenvalues --  -10.18353 -10.17960 -10.17539 -10.17536  -1.09157
 Alpha  occ. eigenvalues --   -1.05134  -0.87062  -0.84590  -0.76885  -0.75911
 Alpha  occ. eigenvalues --   -0.74511  -0.73309  -0.64599  -0.62486  -0.61760
 Alpha  occ. eigenvalues --   -0.59752  -0.56626  -0.53970  -0.51842  -0.49749
 Alpha  occ. eigenvalues --   -0.48492  -0.46101  -0.45689  -0.44274  -0.43789
 Alpha  occ. eigenvalues --   -0.43167  -0.42382  -0.41728  -0.40317  -0.38367
 Alpha  occ. eigenvalues --   -0.37823  -0.36240  -0.35960  -0.35745  -0.33283
 Alpha  occ. eigenvalues --   -0.33218  -0.27333  -0.25158  -0.24901  -0.21987
 Alpha virt. eigenvalues --   -0.03098  -0.01719  -0.01012  -0.00126   0.00630
 Alpha virt. eigenvalues --    0.01954   0.02845   0.03690   0.04277   0.04480
 Alpha virt. eigenvalues --    0.05586   0.06035   0.06753   0.07777   0.07865
 Alpha virt. eigenvalues --    0.08584   0.09233   0.09328   0.09547   0.09914
 Alpha virt. eigenvalues --    0.10994   0.11710   0.12312   0.12594   0.13124
 Alpha virt. eigenvalues --    0.13991   0.14177   0.14448   0.14743   0.15062
 Alpha virt. eigenvalues --    0.15593   0.15796   0.16256   0.16581   0.17161
 Alpha virt. eigenvalues --    0.17964   0.18320   0.18580   0.19068   0.19994
 Alpha virt. eigenvalues --    0.20679   0.21087   0.21797   0.22448   0.23610
 Alpha virt. eigenvalues --    0.23802   0.23993   0.24639   0.25179   0.25721
 Alpha virt. eigenvalues --    0.26395   0.26577   0.26882   0.27389   0.28100
 Alpha virt. eigenvalues --    0.28309   0.28714   0.29306   0.29761   0.30426
 Alpha virt. eigenvalues --    0.31143   0.34143   0.34879   0.35389   0.35932
 Alpha virt. eigenvalues --    0.36431   0.37453   0.37789   0.39529   0.40446
 Alpha virt. eigenvalues --    0.41896   0.44760   0.47104   0.48841   0.51602
 Alpha virt. eigenvalues --    0.53632   0.55167   0.56283   0.57299   0.58616
 Alpha virt. eigenvalues --    0.58989   0.59497   0.61338   0.62659   0.65786
 Alpha virt. eigenvalues --    0.67748   0.68479   0.68860   0.70119   0.70976
 Alpha virt. eigenvalues --    0.72099   0.73738   0.73861   0.74825   0.75280
 Alpha virt. eigenvalues --    0.75722   0.76287   0.76837   0.76976   0.77102
 Alpha virt. eigenvalues --    0.78257   0.78720   0.79302   0.80256   0.81300
 Alpha virt. eigenvalues --    0.82346   0.83217   0.84706   0.85111   0.85838
 Alpha virt. eigenvalues --    0.87178   0.89420   0.89663   0.91538   0.92078
 Alpha virt. eigenvalues --    0.92380   0.93814   0.94013   0.94741   0.95538
 Alpha virt. eigenvalues --    0.95913   0.97341   0.97745   0.98399   0.98938
 Alpha virt. eigenvalues --    0.99694   1.00040   1.01873   1.04325   1.05665
 Alpha virt. eigenvalues --    1.08974   1.09413   1.12002   1.13107   1.14187
 Alpha virt. eigenvalues --    1.15701   1.16334   1.16860   1.17639   1.17805
 Alpha virt. eigenvalues --    1.18909   1.19601   1.21700   1.22266   1.25791
 Alpha virt. eigenvalues --    1.26685   1.27836   1.28742   1.29642   1.31085
 Alpha virt. eigenvalues --    1.33708   1.39621   1.39815   1.41161   1.43234
 Alpha virt. eigenvalues --    1.49217   1.57462   1.59640   1.60403   1.62725
 Alpha virt. eigenvalues --    1.65656   1.66794   1.67889   1.69021   1.69744
 Alpha virt. eigenvalues --    1.72532   1.73622   1.74191   1.75035   1.75606
 Alpha virt. eigenvalues --    1.76138   1.76794   1.77293   1.77934   1.78686
 Alpha virt. eigenvalues --    1.80042   1.80667   1.82203   1.82591   1.83780
 Alpha virt. eigenvalues --    1.84759   1.85970   1.86151   1.86697   1.87947
 Alpha virt. eigenvalues --    1.89346   1.91458   1.92474   1.93057   1.94251
 Alpha virt. eigenvalues --    1.94969   1.96212   1.97451   1.98580   2.05126
 Alpha virt. eigenvalues --    2.06567   2.07951   2.10210   2.12641   2.14090
 Alpha virt. eigenvalues --    2.16441   2.19195   2.22731   2.25814   2.26351
 Alpha virt. eigenvalues --    2.26791   2.27490   2.28422   2.28868   2.29495
 Alpha virt. eigenvalues --    2.30910   2.32224   2.33704   2.34152   2.34756
 Alpha virt. eigenvalues --    2.35591   2.36401   2.37366   2.37955   2.39518
 Alpha virt. eigenvalues --    2.41013   2.45901   2.51489   2.53373   2.65306
 Alpha virt. eigenvalues --    2.66623   2.67510   2.68642   2.69238   2.71170
 Alpha virt. eigenvalues --    2.72239   2.73817   2.74128   2.74924   2.76849
 Alpha virt. eigenvalues --    2.77687   2.89138   2.89965   2.92177   2.94781
 Alpha virt. eigenvalues --    2.95792   2.96498   2.98845   3.03278   3.04635
 Alpha virt. eigenvalues --    3.04947   3.06898   3.08115   3.15201   3.17776
 Alpha virt. eigenvalues --    3.32211   3.35185   3.42497   3.48918   3.60271
 Alpha virt. eigenvalues --    3.64241   3.82948   3.90920  45.36143  45.38611
 Alpha virt. eigenvalues --   45.40065  45.41700  45.42396  45.43772  45.44039
 Alpha virt. eigenvalues --   45.44451  45.46104  45.46876  45.48072  45.50361
 Alpha virt. eigenvalues --   94.33976  94.40922
          Condensed to atoms (all electrons):
               1          2          3          4          5          6
     1  C    5.054796   0.575318  -0.096116  -0.100851  -0.098544   0.517846
     2  C    0.575318   4.915864   0.590252  -0.103964  -0.087212  -0.077592
     3  C   -0.096116   0.590252   5.003212   0.486051  -0.095651  -0.091699
     4  C   -0.100851  -0.103964   0.486051   5.099019   0.555052  -0.089696
     5  C   -0.098544  -0.087212  -0.095651   0.555052   4.608845   0.595834
     6  C    0.517846  -0.077592  -0.091699  -0.089696   0.595834   4.963938
     7  H    0.390260  -0.036816   0.010103   0.000269   0.007638  -0.046886
     8  H   -0.051280   0.393236  -0.031116   0.010684   0.003298   0.002028
     9  H    0.011759  -0.032203   0.389232  -0.050615   0.005815  -0.000248
    10  H   -0.035441   0.009954  -0.001897   0.008193  -0.043096   0.387250
    11  C    0.000384  -0.000137   0.001436  -0.010566   0.002360  -0.001541
    12  C    0.000001  -0.000072   0.000323  -0.002673  -0.000436  -0.000323
    13  C    0.000002  -0.000011   0.000017  -0.000521   0.000246  -0.000067
    14  C   -0.000013   0.000002  -0.000032   0.000502  -0.000002   0.000020
    15  C   -0.000121   0.000059   0.000056   0.003922   0.000265  -0.000001
    16  C   -0.000024   0.000200  -0.002198   0.009467   0.000144   0.003419
    17  H    0.000000  -0.000000  -0.000010   0.000005   0.000004   0.000010
    18  H   -0.000000   0.000000  -0.000000   0.000002  -0.000003   0.000000
    19  H   -0.000000   0.000000  -0.000000   0.000000  -0.000000   0.000000
    20  H    0.000000  -0.000000  -0.000006  -0.000011  -0.000004   0.000008
    21  H   -0.000042   0.000011  -0.000154   0.001688  -0.002371   0.000497
    22  O   -0.000519   0.001707   0.011790   0.007044  -0.026378  -0.003209
    23  H    0.000058  -0.000072  -0.000643  -0.002227   0.002483   0.000639
    24  H   -0.002032   0.011229  -0.027676   0.386786  -0.053314   0.005579
    25  O    0.006017   0.002829   0.005009  -0.080884   0.169321  -0.103178
    26  H   -0.000436   0.000262  -0.002064  -0.005803  -0.032682   0.011398
               7          8          9         10         11         12
     1  C    0.390260  -0.051280   0.011759  -0.035441   0.000384   0.000001
     2  C   -0.036816   0.393236  -0.032203   0.009954  -0.000137  -0.000072
     3  C    0.010103  -0.031116   0.389232  -0.001897   0.001436   0.000323
     4  C    0.000269   0.010684  -0.050615   0.008193  -0.010566  -0.002673
     5  C    0.007638   0.003298   0.005815  -0.043096   0.002360  -0.000436
     6  C   -0.046886   0.002028  -0.000248   0.387250  -0.001541  -0.000323
     7  H    0.587119  -0.005872  -0.000160  -0.005944  -0.000008  -0.000000
     8  H   -0.005872   0.588077  -0.005792  -0.000123   0.000001   0.000000
     9  H   -0.000160  -0.005792   0.589877   0.000013  -0.000108  -0.000009
    10  H   -0.005944  -0.000123   0.000013   0.578310  -0.000157  -0.000006
    11  C   -0.000008   0.000001  -0.000108  -0.000157   4.649736   0.539709
    12  C   -0.000000   0.000000  -0.000009  -0.000006   0.539709   5.027531
    13  C   -0.000000   0.000000  -0.000001  -0.000001  -0.102941   0.536549
    14  C    0.000000  -0.000000   0.000001   0.000001  -0.097296  -0.081045
    15  C    0.000000  -0.000000   0.000012   0.000009  -0.098229  -0.088543
    16  C    0.000008  -0.000003   0.000093   0.000140   0.610982  -0.085577
    17  H    0.000000   0.000000   0.000000   0.000000  -0.072660   0.388217
    18  H    0.000000   0.000000   0.000000   0.000000   0.012456  -0.029529
    19  H    0.000000   0.000000   0.000000   0.000000   0.004252   0.006753
    20  H    0.000000   0.000000   0.000000   0.000000   0.009229  -0.001480
    21  H    0.000000   0.000000   0.000000  -0.000000  -0.040182   0.009698
    22  O    0.000005   0.000007   0.000103   0.000111   0.117675  -0.113299
    23  H    0.000000   0.000000   0.000000   0.000000  -0.037161  -0.006874
    24  H    0.000013  -0.000141  -0.006318  -0.000132  -0.009602  -0.003749
    25  O   -0.000846  -0.000101  -0.001000  -0.003317   0.000012   0.003751
    26  H    0.000002  -0.000000  -0.000004  -0.000077  -0.002165  -0.000321
              13         14         15         16         17         18
     1  C    0.000002  -0.000013  -0.000121  -0.000024   0.000000  -0.000000
     2  C   -0.000011   0.000002   0.000059   0.000200  -0.000000   0.000000
     3  C    0.000017  -0.000032   0.000056  -0.002198  -0.000010  -0.000000
     4  C   -0.000521   0.000502   0.003922   0.009467   0.000005   0.000002
     5  C    0.000246  -0.000002   0.000265   0.000144   0.000004  -0.000003
     6  C   -0.000067   0.000020  -0.000001   0.003419   0.000010   0.000000
     7  H   -0.000000   0.000000   0.000000   0.000008   0.000000   0.000000
     8  H    0.000000  -0.000000  -0.000000  -0.000003   0.000000   0.000000
     9  H   -0.000001   0.000001   0.000012   0.000093   0.000000   0.000000
    10  H   -0.000001   0.000001   0.000009   0.000140   0.000000   0.000000
    11  C   -0.102941  -0.097296  -0.098229   0.610982  -0.072660   0.012456
    12  C    0.536549  -0.081045  -0.088543  -0.085577   0.388217  -0.029529
    13  C    5.001436   0.579449  -0.096210  -0.098450  -0.014453   0.387973
    14  C    0.579449   4.900663   0.575110  -0.089949   0.017192  -0.048610
    15  C   -0.096210   0.575110   5.033487   0.496158  -0.001877   0.004049
    16  C   -0.098450  -0.089949   0.496158   4.937816  -0.000257   0.000214
    17  H   -0.014453   0.017192  -0.001877  -0.000257   0.598189  -0.006014
    18  H    0.387973  -0.048610   0.004049   0.000214  -0.006014   0.577579
    19  H   -0.036246   0.392985  -0.043344   0.003799  -0.000136  -0.005762
    20  H    0.011117  -0.033550   0.391105  -0.049787   0.000013  -0.000154
    21  H   -0.002015   0.006865  -0.036567   0.386035  -0.000124   0.000013
    22  O    0.000211   0.003938   0.015036  -0.029809  -0.002948  -0.000875
    23  H   -0.001319   0.000388  -0.000831   0.009996   0.002842  -0.000009
    24  H   -0.000374   0.000230   0.002064   0.012678   0.000001   0.000000
    25  O    0.000249  -0.000248  -0.000618  -0.006333   0.000095   0.000004
    26  H   -0.000076   0.000061   0.000001   0.001554   0.000004   0.000000
              19         20         21         22         23         24
     1  C   -0.000000   0.000000  -0.000042  -0.000519   0.000058  -0.002032
     2  C    0.000000  -0.000000   0.000011   0.001707  -0.000072   0.011229
     3  C   -0.000000  -0.000006  -0.000154   0.011790  -0.000643  -0.027676
     4  C    0.000000  -0.000011   0.001688   0.007044  -0.002227   0.386786
     5  C   -0.000000  -0.000004  -0.002371  -0.026378   0.002483  -0.053314
     6  C    0.000000   0.000008   0.000497  -0.003209   0.000639   0.005579
     7  H    0.000000   0.000000   0.000000   0.000005   0.000000   0.000013
     8  H    0.000000   0.000000   0.000000   0.000007   0.000000  -0.000141
     9  H    0.000000   0.000000   0.000000   0.000103   0.000000  -0.006318
    10  H    0.000000   0.000000  -0.000000   0.000111   0.000000  -0.000132
    11  C    0.004252   0.009229  -0.040182   0.117675  -0.037161  -0.009602
    12  C    0.006753  -0.001480   0.009698  -0.113299  -0.006874  -0.003749
    13  C   -0.036246   0.011117  -0.002015   0.000211  -0.001319  -0.000374
    14  C    0.392985  -0.033550   0.006865   0.003938   0.000388   0.000230
    15  C   -0.043344   0.391105  -0.036567   0.015036  -0.000831   0.002064
    16  C    0.003799  -0.049787   0.386035  -0.029809   0.009996   0.012678
    17  H   -0.000136   0.000013  -0.000124  -0.002948   0.002842   0.000001
    18  H   -0.005762  -0.000154   0.000013  -0.000875  -0.000009   0.000000
    19  H    0.578022  -0.005733  -0.000123  -0.000119  -0.000000   0.000000
    20  H   -0.005733   0.574923  -0.006017  -0.000761   0.000002   0.000000
    21  H   -0.000123  -0.006017   0.575980  -0.004665  -0.000153   0.000050
    22  O   -0.000119  -0.000761  -0.004665   8.297575   0.350399  -0.000719
    23  H   -0.000000   0.000002  -0.000153   0.350399   0.389219  -0.000190
    24  H    0.000000   0.000000   0.000050  -0.000719  -0.000190   0.603640
    25  O    0.000001   0.000027   0.001863   0.007138   0.000278  -0.010082
    26  H    0.000000   0.000001   0.000146   0.032179  -0.001323   0.003955
              25         26
     1  C    0.006017  -0.000436
     2  C    0.002829   0.000262
     3  C    0.005009  -0.002064
     4  C   -0.080884  -0.005803
     5  C    0.169321  -0.032682
     6  C   -0.103178   0.011398
     7  H   -0.000846   0.000002
     8  H   -0.000101  -0.000000
     9  H   -0.001000  -0.000004
    10  H   -0.003317  -0.000077
    11  C    0.000012  -0.002165
    12  C    0.003751  -0.000321
    13  C    0.000249  -0.000076
    14  C   -0.000248   0.000061
    15  C   -0.000618   0.000001
    16  C   -0.006333   0.001554
    17  H    0.000095   0.000004
    18  H    0.000004   0.000000
    19  H    0.000001   0.000000
    20  H    0.000027   0.000001
    21  H    0.001863   0.000146
    22  O    0.007138   0.032179
    23  H    0.000278  -0.001323
    24  H   -0.010082   0.003955
    25  O    8.353278   0.332058
    26  H    0.332058   0.320627
 Mulliken charges:
               1
     1  C   -0.171023
     2  C   -0.162843
     3  C   -0.148221
     4  C   -0.120876
     5  C    0.488389
     6  C   -0.074025
     7  H    0.101115
     8  H    0.097097
     9  H    0.099551
    10  H    0.106209
    11  C    0.524522
    12  C   -0.098597
    13  C   -0.164565
    14  C   -0.126662
    15  C   -0.154993
    16  C   -0.110314
    17  H    0.091908
    18  H    0.108665
    19  H    0.105654
    20  H    0.111077
    21  H    0.109566
    22  O   -0.661616
    23  H    0.294500
    24  H    0.088104
    25  O   -0.675324
    26  H    0.342701
 Sum of Mulliken charges =  -0.00000
 Mulliken charges with hydrogens summed into heavy atoms:
               1
     1  C   -0.069908
     2  C   -0.065746
     3  C   -0.048670
     4  C   -0.032772
     5  C    0.488389
     6  C    0.032184
    11  C    0.524522
    12  C   -0.006689
    13  C   -0.055899
    14  C   -0.021008
    15  C   -0.043916
    16  C   -0.000748
    22  O   -0.367115
    25  O   -0.332622
 Electronic spatial extent (au):  <R**2>=           4877.6619
 Charge=              0.0000 electrons
 Dipole moment (field-independent basis, Debye):
    X=             -2.8860    Y=             -0.6878    Z=              1.4915  Tot=              3.3207
 Quadrupole moment (field-independent basis, Debye-Ang):
   XX=            -74.9784   YY=            -78.9916   ZZ=            -84.7811
   XY=              4.0958   XZ=             -0.6584   YZ=             -3.9952
 Traceless Quadrupole moment (field-independent basis, Debye-Ang):
   XX=              4.6053   YY=              0.5921   ZZ=             -5.1974
   XY=              4.0958   XZ=             -0.6584   YZ=             -3.9952
 Octapole moment (field-independent basis, Debye-Ang**2):
  XXX=            -36.2161  YYY=            -18.0206  ZZZ=              2.8782  XYY=            -29.7199
  XXY=              3.1688  XXZ=             -7.7714  XZZ=             14.7599  YZZ=             -2.1392
  YYZ=              4.4837  XYZ=             19.1129
 Hexadecapole moment (field-independent basis, Debye-Ang**3):
 XXXX=          -5554.9872 YYYY=           -416.8717 ZZZZ=           -415.6425 XXXY=             65.8494
 XXXZ=            -47.2612 YYYX=              1.5155 YYYZ=            -31.5078 ZZZX=            -11.4486
 ZZZY=              8.8717 XXYY=          -1076.7365 XXZZ=          -1089.5034 YYZZ=           -141.8536
 XXYZ=            -14.3325 YYXZ=              2.0729 ZZXY=             12.7070
 N-N= 7.634987842141D+02 E-N=-2.959239587043D+03  KE= 6.121928539458D+02
 No NMR shielding tensors so no spin-rotation constants.
 Leave Link  601 at Tue Dec 18 12:17:18 2018, MaxMem=   268435456 cpu:               2.7 elap:               0.5
 (Enter /home/apps/g16/g16/l701.exe)
 ... and contract with generalized density number  0.
 Compute integral first derivatives.
 R6Disp: Adding Grimme-D3 dispersion energy 1st derivatives to the gradient.
 Leave Link  701 at Tue Dec 18 12:17:18 2018, MaxMem=   268435456 cpu:               2.7 elap:               0.4
 (Enter /home/apps/g16/g16/l702.exe)
 L702 exits ... SP integral derivatives will be done elsewhere.
 Leave Link  702 at Tue Dec 18 12:17:18 2018, MaxMem=   268435456 cpu:               0.5 elap:               0.1
 (Enter /home/apps/g16/g16/l703.exe)
 Integral derivatives from FoFJK, PRISM(SPDF).
 Compute integral first derivatives, UseDBF=F ICtDFT=           0.
 Calling FoFJK, ICntrl=      2127 FMM=F ISym2X=0 I1Cent= 0 IOpClX= 0 NMat=1 NMatS=1 NMatT=0.
 FoFJK:  IHMeth= 1 ICntrl=    2127 DoSepK=F KAlg= 0 I1Cent=           0 FoldK=F
 IRaf=         0 NMat=       1 IRICut=       1 DoRegI=T DoRafI=F ISym2E= 0 IDoP0=0 IntGTp=1.
 FoFCou: FMM=F IPFlag=           0 FMFlag=      100000 FMFlg1=         800
         NFxFlg=           0 DoJE=F BraDBF=F KetDBF=F FulRan=T
         wScrn=  0.000000 ICntrl=      2127 IOpCl=  0 I1Cent=           0 NGrid=           0
         NMat0=    1 NMatS0=      1 NMatT0=    0 NMatD0=    1 NMtDS0=    0 NMtDT0=    0
 Symmetry not used in FoFCou.
 Leave Link  703 at Tue Dec 18 12:17:52 2018, MaxMem=   268435456 cpu:             269.6 elap:              33.8
 (Enter /home/apps/g16/g16/l716.exe)
 Dipole        =-1.13545573D+00-2.70589143D-01 5.86810046D-01
 ***** Axes restored to original set *****
 -------------------------------------------------------------------
 Center     Atomic                   Forces (Hartrees/Bohr)
 Number     Number              X              Y              Z
 -------------------------------------------------------------------
      1        6          -0.001796286    0.000162012    0.000792030
      2        6          -0.001678965    0.000620234   -0.000566885
      3        6           0.000182925    0.000651307   -0.001884955
      4        6           0.002297533   -0.000440068   -0.000176688
      5        6          -0.001238005    0.000130154    0.000590763
      6        6           0.001458515   -0.000839197    0.001349550
      7        1          -0.000149526    0.000003303    0.000086625
      8        1          -0.000184392    0.000077805   -0.000093123
      9        1          -0.000017251    0.000049659   -0.000114758
     10        1          -0.000011634   -0.000135554    0.000381635
     11        6          -0.000949816    0.000983499    0.000241407
     12        6          -0.000830601   -0.001651600   -0.000680714
     13        6           0.001452656   -0.000864332   -0.000313360
     14        6           0.001353270    0.000959285    0.000446811
     15        6           0.000135327    0.001620532    0.000613018
     16        6          -0.002018910   -0.000591027   -0.000220360
     17        1          -0.000046185   -0.000111230   -0.000044586
     18        1           0.000225950   -0.000078730   -0.000026627
     19        1           0.000248028    0.000143212    0.000068089
     20        1           0.000012242    0.000241959    0.000114395
     21        1          -0.000682629   -0.000046138    0.000061447
     22        8           0.001607450   -0.004902968   -0.001560248
     23        1          -0.002528610    0.004384642    0.001614248
     24        1           0.000646692   -0.000145018    0.000030489
     25        8           0.004564890    0.000656804   -0.004361763
     26        1          -0.002052670   -0.000878546    0.003653560
 -------------------------------------------------------------------
 Cartesian Forces:  Max     0.004902968 RMS     0.001432205
 Leave Link  716 at Tue Dec 18 12:17:54 2018, MaxMem=   268435456 cpu:               0.5 elap:               0.1
 (Enter /home/apps/g16/g16/l103.exe)

 GradGradGradGradGradGradGradGradGradGradGradGradGradGradGradGradGradGrad
 Berny optimization.
 FormGI is forming the generalized inverse of G from B-inverse, IUseBI=4.
 Internal  Forces:  Max     0.005654425 RMS     0.001031985
 Search for a local minimum.
 Step number   1 out of a maximum of  135
 All quantities printed in internal units (Hartrees-Bohrs-Radians)
 RMS Force = .10320D-02 SwitMx=.10000D-02 MixMth= 1
 Mixed Optimization -- RFO/linear search
 Second derivative matrix not updated -- first step.
 ITU=  0
     Eigenvalues ---    0.00230   0.01257   0.01336   0.01953   0.02074
     Eigenvalues ---    0.02081   0.02098   0.02105   0.02123   0.02129
     Eigenvalues ---    0.02133   0.02137   0.02138   0.02141   0.02142
     Eigenvalues ---    0.02144   0.02146   0.02147   0.02149   0.02152
     Eigenvalues ---    0.02159   0.02160   0.02195   0.02527   0.04733
     Eigenvalues ---    0.14918   0.16000   0.16000   0.16000   0.16000
     Eigenvalues ---    0.16000   0.16000   0.16000   0.16000   0.16000
     Eigenvalues ---    0.16000   0.16000   0.16000   0.22000   0.22000
     Eigenvalues ---    0.22000   0.22000   0.23483   0.23492   0.25000
     Eigenvalues ---    0.25000   0.34966   0.35113   0.35122   0.35133
     Eigenvalues ---    0.35217   0.35219   0.35258   0.35300   0.35301
     Eigenvalues ---    0.35337   0.41723   0.41937   0.42041   0.42153
     Eigenvalues ---    0.45548   0.45759   0.46122   0.46235   0.46267
     Eigenvalues ---    0.46372   0.46572   0.46678   0.49058   0.52024
     Eigenvalues ---    0.52549   0.53309
 RFO step:  Lambda=-9.75892805D-04 EMin= 2.30000000D-03
 Linear search not attempted -- first point.
 Iteration  1 RMS(Cart)=  0.20067193 RMS(Int)=  0.00556648
 Iteration  2 RMS(Cart)=  0.02817937 RMS(Int)=  0.00013176
 Iteration  3 RMS(Cart)=  0.00011494 RMS(Int)=  0.00012193
 Iteration  4 RMS(Cart)=  0.00000002 RMS(Int)=  0.00012193
 ITry= 1 IFail=0 DXMaxC= 8.05D-01 DCOld= 1.00D+10 DXMaxT= 3.00D-01 DXLimC= 3.00D+00 Rises=F
 Variable       Old X    -DE/DX   Delta X   Delta X   Delta X     New X
                                 (Linear)    (Quad)   (Total)
    R1        2.64230   0.00209   0.00000   0.00466   0.00466   2.64697
    R2        2.63138   0.00231   0.00000   0.00491   0.00491   2.63629
    R3        2.05459   0.00017   0.00000   0.00049   0.00049   2.05508
    R4        2.63662   0.00236   0.00000   0.00518   0.00518   2.64181
    R5        2.05259   0.00022   0.00000   0.00062   0.00062   2.05321
    R6        2.63796   0.00204   0.00000   0.00440   0.00440   2.64236
    R7        2.05477   0.00012   0.00000   0.00035   0.00035   2.05513
    R8        2.64874   0.00085   0.00000   0.00173   0.00173   2.65047
    R9        2.05491   0.00054   0.00000   0.00153   0.00153   2.05644
   R10        2.64857   0.00067   0.00000   0.00136   0.00136   2.64993
   R11        2.57377   0.00027   0.00000   0.00050   0.00050   2.57427
   R12        2.05188   0.00041   0.00000   0.00114   0.00114   2.05303
   R13        2.63843   0.00102   0.00000   0.00210   0.00210   2.64054
   R14        2.63934   0.00037   0.00000   0.00067   0.00067   2.64000
   R15        2.60828  -0.00065   0.00000  -0.00133  -0.00133   2.60696
[...]
 -0.00000907,-0.00000444,0.00000157,-0.00000061,-0.00000854,0.00000240,
 -0.00000263,-0.00000401,-0.00000157,-0.00001401,0.00000410,0.00000048,
 -0.00000056,-0.00046544,0.00100346,0.00057820,0.00231915,0.00062692,0.
 00332589,0.00767631,0.00811418,-0.00045663,-0.14593790,-0.13797535,0.0
 1908260,-0.01028686,-0.02153497,-0.00064023,-0.00131240,0.00017000,0.0
 0553570,0.00037358,0.00038666,0.00020081,-0.00066452,0.00058448,-0.002
 07840,0.14954138,-0.00000366,0.00000109,-0.00000153,-0.00000902,0.0000
 0604,0.00000313,0.00000249,-0.00001881,0.00001241,0.00000792,0.0000030
 4,-0.00002582,0.00002791,-0.00003775,0.00002393,-0.00000336,0.00000677
 ,-0.00000297,-0.00000354,0.00000206,0.00000113,-0.00000313,0.00000325,
 -0.00000030,0.00000272,-0.00000007,-0.00000041,-0.00000009,-0.00000024
 ,0.00000197,0.00086997,0.00007283,-0.00046447,0.00124000,-0.00163993,-
 0.00445343,-0.01580979,-0.01588570,0.00332888,-0.13792541,-0.24351867,
 0.00593430,0.00234431,0.00400960,-0.00079221,-0.00042699,0.00212264,-0
 .00159879,-0.00086602,-0.00085385,0.00005291,0.00109211,0.00015907,0.0
 0102655,0.14869627,0.25518887,0.00000295,-0.00000611,0.00000358,0.0000
 0635,-0.00000081,-0.00000817,-0.00000841,0.00001310,0.00000410,0.00001
 396,0.00000950,0.00001440,-0.00002254,0.00000924,-0.00000863,-0.000006
 36,0.00000363,-0.00000063,0.00000364,-0.00000055,-0.00000074,-0.000000
 08,-0.00000167,0.00000097,-0.00000434,-0.00000193,-0.00000545,0.000000
 65,0.00000044,-0.00000242,0.00047936,-0.00052978,-0.00086827,0.0035787
 9,-0.00406067,0.00246983,-0.01076263,-0.01338309,0.00375852,0.01910075
 ,0.00600375,-0.04428519,0.00965532,0.01589806,0.00214240,0.00531186,-0
 .00203088,0.00197638,-0.00033746,-0.00081539,0.00029089,-0.00185829,0.
 00137946,-0.00210300,-0.02328518,-0.00455047,0.03886068,-0.00000884,0.
 00000775,0.00000847,-0.00000845,0.00002772,-0.00000230,-0.00000055,0.0
 0002100,-0.00000565,0.00006718,0.00003285,-0.00001499,0.00005180,-0.00
 009197,0.00006255,-0.00000620,0.00002200,0.00001843,-0.00000108,-0.000
 00348,-0.00000359,-0.00000405,-0.00000550,-0.00000215,-0.00000616,-0.0
 0000814,-0.00001072,-0.00000409,-0.00000696,-0.00000293,0.00038677,-0.
 00403546,0.00335296,-0.00096183,-0.00054673,-0.00022663,-0.00211353,-0
 .00176731,0.00543825,-0.00111927,0.02194846,0.01268324,-0.07000699,0.0
 5328054,0.04557473,0.00810468,-0.01581748,-0.00998462,-0.00016224,0.00
 020697,-0.00035844,-0.00021407,0.00110005,0.00066403,-0.00063662,0.000
 55456,-0.00200578,0.06723645,-0.00001009,0.00001578,0.00000280,-0.0000
 1812,0.00001783,0.00000073,-0.00000115,0.00000531,0.00001524,0.0000516
 0,0.00000993,-0.00005183,0.00007079,-0.00009169,0.00007207,-0.00001068
 ,0.00002113,0.00001043,-0.00000584,-0.00000005,-0.00000208,-0.00000477
 ,-0.00000050,-0.00000063,-0.00000035,-0.00000448,-0.00000404,-0.000008
 20,-0.00000912,-0.00000029,-0.00448107,-0.00059606,-0.00040649,-0.0004
 3889,0.00002040,0.00071895,-0.00123250,0.00220370,-0.00108311,-0.00159
 283,0.00413806,0.00135248,0.05291996,-0.24473274,-0.12562067,0.0075799
 6,-0.01610146,-0.01372265,0.00019450,-0.00012498,0.00015073,-0.0001478
 0,0.00007331,0.00011797,0.00106049,0.00018595,0.00098225,-0.05480191,0
 .25631028,0.00000058,-0.00000956,0.00001533,-0.00001168,0.00003711,-0.
 00000543,0.00000705,0.00002165,0.00001406,0.00004458,0.00002469,-0.000
 03656,0.00010135,-0.00013398,0.00011730,-0.00002620,0.00001501,-0.0000
 0626,-0.00000008,-0.00000141,-0.00000264,-0.00000931,-0.00000305,-0.00
 000470,-0.00001133,-0.00001197,-0.00002845,0.00000615,0.00000258,-0.00
 000350,0.00320309,-0.00072952,0.00517000,-0.00019691,0.00079063,-0.000
 46073,0.00567801,-0.00071756,0.00248730,0.00261175,-0.01511494,-0.0047
 1091,0.04535061,-0.12573063,-0.12286383,0.00004416,0.00253313,0.004613
 43,-0.00036137,0.00015141,-0.00048637,0.00012460,-0.00076193,-0.000363
 00,-0.00178940,0.00135067,-0.00203603,-0.05249893,0.13687940,0.1208679
 7,-0.00002747,0.00002513,0.00003810,0.00009630,-0.00006443,-0.00000403
 ,-0.00012128,0.00007429,-0.00001828,0.00002882,-0.00011666,-0.00015714
 ,-0.00097777,-0.00007561,-0.00060021,0.00010325,0.00009723,0.00007615,
 0.00001072,-0.00001680,-0.00000478,0.00000791,-0.00000419,0.00000955,0
 .00000282,-0.00001878,0.00002113,-0.00000877,-0.00000945,-0.00000785,-
 0.00257647,-0.00235047,0.00385235,0.00237625,0.00013694,0.00209879,0.0
 0016002,0.00012334,-0.00075605,0.00192368,-0.00407682,0.00188032,-0.00
 931425,0.00186670,0.00894894,-0.24481836,-0.00378486,0.14480218,-0.000
 03521,-0.00010475,0.00008845,-0.00026320,0.00015699,-0.00029393,-0.000
 39327,0.00011188,0.00055122,-0.00069419,0.00073490,-0.00209310,0.25519
 981,-0.00002436,0.00002911,-0.00006797,0.00010151,-0.00011892,0.000080
 52,-0.00004696,-0.00000466,0.00001357,-0.00003533,-0.00030447,0.000240
 90,-0.00133776,0.00124938,-0.00107209,0.00027289,-0.00023114,-0.000005
 89,0.00001976,-0.00001082,0.00000694,0.00000856,-0.00000273,0.00000542
 ,0.00001465,-0.00000718,0.00003612,-0.00001138,0.00003048,0.00001322,0
 .02187134,0.00461182,-0.01511133,-0.00037353,-0.00367772,-0.00370881,-
 0.00016671,-0.00124625,0.00001989,-0.00369295,-0.00318868,-0.00190638,
 -0.02098649,0.00488225,0.01566708,-0.00556512,-0.05654213,-0.00578414,
 0.00109968,0.00003817,-0.00081832,0.00016520,0.00001964,0.00023890,-0.
 00109073,0.00010541,0.00067063,0.00108768,0.00022791,0.00115841,0.0074
 8131,0.05423214,0.00010525,-0.00016397,0.00012020,0.00013363,-0.000043
 83,-0.00015279,-0.00012150,0.00032354,-0.00013865,0.00017529,0.0001468
 3,0.00025475,-0.00004399,-0.00014845,0.00027552,-0.00024364,0.00009180
 ,-0.00000057,0.00002748,-0.00000596,0.00000053,0.00002944,-0.00002064,
 -0.00000277,-0.00000726,-0.00001549,0.00000844,0.00005039,0.00001461,-
 0.00002998,0.01434571,0.00176191,-0.00480431,0.00194806,-0.00408190,0.
 00230069,-0.00090704,-0.00018897,-0.00044124,0.00212852,-0.00158539,0.
 00508509,-0.00077318,-0.00029749,0.00288816,0.14323142,-0.00689660,-0.
 13701445,0.00062446,0.00001727,-0.00026985,-0.00030380,0.00024356,-0.0
 0049605,0.00004845,-0.00017050,0.00022486,-0.00199002,0.00139808,-0.00
 227976,-0.15641596,0.00839251,0.13663021,-0.00006578,-0.00014606,0.000
 39648,-0.00037571,0.00054110,-0.00047353,-0.00030576,-0.00009556,0.000
 86774,0.00149512,0.00125635,-0.00240742,0.00239286,-0.00456879,0.00425
 716,-0.00108425,0.00121390,-0.00059531,-0.00016921,0.00010228,-0.00003
 153,-0.00017301,0.00008281,-0.00003062,-0.00004289,0.00005698,-0.00021
 701,0.00006937,-0.00012612,-0.00001165,-0.15542263,-0.07132748,0.04836
 035,-0.02847234,-0.04452455,0.00564625,0.00096618,0.00628361,0.0070239
 8,-0.00058213,-0.00418024,-0.00223370,-0.00125887,0.00137151,0.0049752
 4,0.01021778,-0.00090709,-0.00306837,0.00124249,0.00136529,-0.00302227
 ,-0.00104974,-0.00165502,0.00013603,-0.00012879,-0.00006132,-0.0005251
 9,0.00030068,0.00023723,-0.00005333,-0.00043147,0.00072638,-0.00177312
 ,0.28494940,-0.00000184,-0.00012278,0.00014299,-0.00013838,0.00021833,
 -0.00013642,0.00011557,0.00004671,0.00013243,0.00018268,0.00053052,-0.
 00008592,0.00106319,-0.00167951,0.00156870,-0.00050460,0.00038264,-0.0
 0017131,-0.00004811,0.00003469,-0.00001340,-0.00005382,0.00000598,-0.0
 0003220,-0.00006665,-0.00001244,-0.00014152,0.00002163,-0.00006062,-0.
 00002855,-0.11317193,-0.20300830,0.00682757,-0.01164007,-0.00875256,0.
 00083615,-0.00067917,-0.00008446,-0.00273561,-0.00437053,-0.00196682,0
 .00275606,0.00616864,0.00261385,-0.00516250,-0.03101548,-0.04871826,-0
 .00239650,0.00202997,0.00288043,0.00143805,-0.00032453,-0.00038447,-0.
 00001278,-0.00005136,-0.00000477,0.00036628,-0.00097447,-0.00134349,0.
 00001697,0.00029721,0.00134808,0.00171725,0.00985591,0.56591325,-0.000
 09994,0.00017703,-0.00028611,-0.00008929,-0.00004765,0.00016381,-0.000
 23059,-0.00009301,0.00038630,0.00083521,0.00004884,-0.00017853,-0.0012
 4408,0.00247653,-0.00244136,0.00067189,-0.00068606,0.00038035,0.000024
 26,-0.00003295,0.00002937,-0.00005307,0.00001020,0.00003293,0.00004791
 ,-0.00005744,0.00004382,-0.00011111,0.00005005,0.00006842,0.03118396,-
 0.01953375,-0.06705968,0.02005657,0.02335651,0.00420517,0.00394473,-0.
 00776607,0.00101076,-0.00267578,0.00256900,0.00179897,0.00731085,-0.00
 157453,-0.00097361,-0.01644613,-0.02391882,0.00747157,-0.00269332,0.00
 196025,-0.00116242,0.00064952,0.00089474,0.00004550,-0.00051851,0.0003
 9241,-0.00032504,-0.00054683,-0.00083446,0.00018606,-0.00186792,0.0015
 5826,-0.00137423,-0.16464591,0.21863002,0.22274771,0.00001565,-0.00004
 260,0.00006601,0.00002507,0.00004013,-0.00004642,-0.00002609,0.0000149
 5,-0.00008587,-0.00019319,-0.00005372,-0.00021502,0.00040475,-0.000614
 36,0.00061094,-0.00015364,0.00019068,-0.00010816,-0.00000494,0.0000086
 7,-0.00000985,0.00001335,-0.00000059,-0.00000190,-0.00000974,0.0000240
 8,-0.00000603,0.00003392,-0.00000433,-0.00000801,0.00880527,-0.0225818
 7,-0.01728388,0.00089393,-0.00250029,-0.00210717,-0.00075694,-0.000010
 65,0.00006628,-0.00015469,0.00020351,0.00026330,0.00131365,-0.00058793
 ,-0.00007272,-0.00271952,-0.00416124,0.00124923,-0.00088531,0.00089730
 ,0.00143602,0.00002416,0.00001460,-0.00002699,-0.00006581,0.00014695,0
 .00005504,-0.00023711,-0.00018688,-0.00005448,-0.00009792,0.00001995,-
 0.00028068,-0.10015339,0.13988478,0.12212774,0.09292907,-0.00003734,0.
 00003892,-0.00001298,-0.00007538,0.00002402,0.00000599,-0.00002258,-0.
 00006784,0.00009571,0.00012147,0.00000940,-0.00018842,0.00007242,-0.00
 014739,0.00010188,-0.00004136,0.00001057,0.00000577,-0.00001736,0.0000
 1242,0.00000641,-0.00001978,0.00002224,0.00000455,0.00002343,0.0000041
 7,0.00000593,-0.00001055,0.00001074,0.00001858,0.01317696,-0.02971247,
 -0.02014460,0.00255282,0.00455805,0.00045726,0.00020313,-0.00103465,-0
 .00037270,-0.00011639,0.00077710,0.00038957,0.00112362,-0.00033076,-0.
 00169599,-0.00518488,-0.00215819,0.00196465,-0.00136172,0.00003037,0.0
 0076699,0.00020986,0.00024027,-0.00004016,-0.00001489,0.00006302,0.000
 08358,-0.00027173,-0.00028157,0.00015047,0.00014212,0.00023800,0.00027
 954,0.10101477,-0.30374265,-0.19379080,-0.11277799,0.33126409,0.000028
 73,-0.00004152,-0.00000156,0.00000848,0.00001137,-0.00003215,-0.000022
 52,-0.00000585,-0.00003211,-0.00026043,0.00002478,-0.00013655,0.000327
 63,-0.00010678,0.00006955,-0.00003781,0.00001380,0.00001325,0.00001030
 ,-0.00000222,-0.00000113,0.00001213,0.00000388,0.00000343,-0.00000895,
 0.00003015,-0.00000716,0.00002230,0.00000216,-0.00000835,-0.00234782,0
 .00374265,-0.00021602,0.00001054,0.00384433,0.00114768,0.00013917,-0.0
 0010660,-0.00079994,0.00016456,0.00015366,0.00003210,0.00068638,-0.000
 55357,0.00095702,0.00073886,0.00109861,0.00171662,0.00047496,-0.000843
 39,-0.00011587,0.00005472,0.00008439,-0.00001107,-0.00002094,-0.000045
 38,-0.00007919,-0.00009828,0.00007495,-0.00009759,-0.00026452,0.000339
 17,-0.00023169,0.10637731,-0.21968602,-0.16355333,-0.10579579,0.212127
 98,0.16159220,0.00031274,-0.00055353,-0.00036752,0.00189849,0.00413390
 ,-0.00126834,-0.01028165,0.00353635,0.00756282,-0.25708152,0.08880517,
 0.10307307,-0.00567100,0.00590474,0.00102946,0.00224718,0.00059833,0.0
 0246374,-0.00026495,-0.00028849,-0.00015449,-0.00044749,0.00032160,0.0
 0052430,-0.00043926,-0.00160775,-0.00132134,-0.00032492,0.00017055,0.0
 0001790,-0.00088074,0.00044981,-0.00061953,0.00001678,-0.00011042,0.00
 013813,-0.00000535,0.00004294,0.00005051,0.00007280,0.00000084,-0.0000
 3796,-0.00008839,-0.00003056,0.00000441,-0.00014093,-0.00008789,-0.000
 26520,0.00001367,-0.00001325,-0.00001282,0.00000235,0.00000416,-0.0000
 0977,0.00000507,0.00000152,0.00000530,0.00000112,0.00001070,0.00000223
 ,-0.00015903,-0.00001808,0.00002650,-0.00136792,0.00034610,-0.00050925
 ,0.00003279,0.00016336,0.00008707,0.27146458,-0.00036068,-0.00081057,0
 .00034973,0.00378830,0.00141941,0.00494163,0.01735565,-0.00360482,-0.0
 1022602,0.08894610,-0.07480531,-0.02852096,-0.00875886,0.00663019,0.00
 536362,0.00102820,0.00252808,0.00381646,-0.00030634,-0.00044142,-0.000
 36261,0.00104740,-0.00001627,-0.00031029,-0.00192015,-0.00194483,-0.00
 148992,-0.00055274,0.00018900,0.00021497,0.00113307,0.00127227,0.00027
 470,-0.00033167,-0.00013498,0.00013013,0.00007359,0.00011126,-0.000002
 50,-0.00003504,-0.00012277,-0.00003873,-0.00002885,-0.00019611,0.00003
 818,0.00006399,-0.00021950,0.00008577,0.00002961,-0.00002830,-0.000034
 38,0.00000161,-0.00000968,0.00000011,0.00000897,0.00000561,-0.00001221
 ,-0.00001342,-0.00000638,-0.00001874,0.00002962,0.00004407,-0.00020313
 ,-0.00032343,-0.00091490,-0.00030926,0.00030993,-0.00016857,0.00012879
 ,-0.09926829,0.07219740,-0.00072193,0.00057262,-0.00097090,-0.00051158
 ,0.00440922,0.00041872,-0.01466319,0.00492311,0.01000474,0.10085560,-0
 .02762364,-0.09831531,0.02522259,-0.01100360,-0.00583662,0.00188228,0.
 00429271,-0.00361713,-0.00015167,-0.00036573,-0.00010512,-0.00061828,0
 .00048077,0.00041970,-0.00094012,-0.00178254,-0.00022735,0.00124259,-0
 .00060644,-0.00045134,-0.00093275,-0.00053260,0.00004126,-0.00010246,0
 .00000896,-0.00002426,0.00009605,0.00018030,-0.00002269,0.00016287,-0.
 00000853,-0.00014547,-0.00014905,-0.00028191,0.00010994,0.00012196,0.0
 0021348,0.00015340,0.00002852,-0.00003988,0.00000098,0.00003232,0.0000
 0913,-0.00000255,0.00002642,0.00001324,-0.00001344,0.00000652,0.000027
 16,0.00000678,-0.00003354,-0.00005242,-0.00035057,0.00040181,0.0000812
 7,0.00011542,0.00011386,0.00010110,0.00018030,-0.10980846,0.02812277,0
 .09842547,-0.00002185,-0.00301420,0.01012636,0.00102211,0.00229641,-0.
 00608476,-0.00221003,0.00396743,0.00398154,0.01001860,-0.00019835,-0.0
 0026988,-0.14344526,0.10052370,-0.05432121,-0.03420463,0.04341739,-0.0
 2503365,-0.00110919,0.00127209,-0.00076831,-0.00004208,-0.00023059,-0.
 00047502,0.00014318,-0.00017373,-0.00006663,0.00085634,-0.00206151,-0.
 00132394,0.00249252,0.00613365,0.00047047,-0.00114021,-0.00135338,0.00
 031069,-0.00006281,0.00020288,0.00025467,-0.00044828,-0.00064490,0.000
 06824,-0.00026093,0.00063687,0.00067147,0.00088112,-0.00214131,-0.0011
 6142,0.00006253,0.00007651,-0.00014408,-0.00017292,-0.00010195,0.00003
 612,-0.00018263,-0.00006977,0.00003461,-0.00007319,-0.00014139,-0.0001
 3870,-0.00009612,0.00149301,0.00016863,-0.01037859,0.00053855,0.006431
 68,-0.00234112,-0.00155153,-0.00007633,0.00058836,-0.00218695,-0.00137
 774,0.51520704,0.00045960,0.00523413,-0.00123674,0.00148840,-0.0036677
 8,0.00241516,0.00036549,0.00557329,0.00240686,0.01561855,-0.01367617,0
 .02115453,0.08041962,-0.16046137,0.10426390,0.02535116,-0.01630670,0.0
 1103948,0.00051998,-0.00044108,0.00025657,-0.00026693,-0.00051856,-0.0
 0020239,0.00045323,-0.00071089,0.00053830,-0.00194312,-0.00122881,-0.0
 0140674,-0.00179729,-0.00523637,-0.00046640,0.00103309,0.00109293,-0.0
 0020308,-0.00006706,-0.00025939,-0.00014605,0.00017475,0.00031733,-0.0
 0001524,-0.00027426,0.00008734,0.00003301,0.00025366,0.00044588,-0.000
 20305,-0.00008648,0.00000774,0.00016391,0.00008588,0.00008175,-0.00001
 198,0.00003158,0.00003035,0.00004258,0.00010325,0.00010221,0.00009446,
 0.00006191,-0.00026116,0.00032591,0.00578893,0.00524950,-0.00240637,-0
 .00007639,0.00010604,0.00018013,-0.00209662,-0.00090610,-0.00234614,-0
 .22946838,0.23353412,0.00437853,0.00272125,-0.00470372,-0.00520000,0.0
 0168788,0.00188794,0.01046251,-0.00196614,-0.00099421,-0.02690052,0.03
 952992,-0.02530494,-0.02120989,0.08221968,-0.15364728,0.00446169,-0.00
 876401,0.01690400,0.00040545,-0.00052685,0.00048147,-0.00046268,-0.000
 23852,0.00003560,-0.00102992,0.00123416,-0.00097084,-0.00146852,-0.001
 30310,0.00038325,-0.00000235,-0.00102383,-0.00011959,0.00011930,0.0003
 0140,0.00006029,-0.00013200,-0.00012635,-0.00004278,-0.00016647,-0.000
 09673,0.00011407,-0.00017241,0.00032086,0.00036615,0.00057942,-0.00067
 753,-0.00045350,-0.00007202,0.00002877,0.00004443,-0.00002619,0.000014
 30,0.00000662,-0.00008898,-0.00000999,0.00002962,-0.00000996,0.0000146
 1,-0.00008441,0.00028508,0.00088170,-0.00026264,0.00297870,-0.00070477
 ,0.00079735,0.00027987,0.00043440,0.00015023,-0.00149057,-0.00244406,0
 .00164760,-0.13936117,-0.08772629,0.31571139,-0.00022976,0.00093182,0.
 00060310,0.00069916,-0.00078227,0.00048112,-0.00124290,0.00011177,0.00
 043973,0.00349192,-0.00424024,0.00217606,-0.02413768,0.01147264,0.0041
 1270,0.00288240,0.00031502,-0.00158915,0.00006436,-0.00006830,-0.00014
 494,0.00004247,-0.00008340,0.00002711,0.00019183,-0.00029819,0.0003578
 9,-0.00011297,-0.00019324,-0.00017651,-0.00550574,-0.01055106,-0.00064
 481,0.00196070,0.00222529,-0.00037058,0.00001189,-0.00039371,-0.000250
 71,0.00044970,0.00061836,-0.00004718,-0.00027852,-0.00018462,0.0000327
 1,-0.00004598,0.00133543,0.00023170,-0.00015547,-0.00001229,0.00017906
 ,0.00019197,0.00016756,-0.00005490,0.00007009,0.00008350,0.00001646,0.
 00010976,0.00022233,0.00007064,0.00010521,-0.00101254,-0.00018304,-0.0
 0017141,0.00253671,-0.00155259,0.00330778,0.00269952,-0.00020974,0.000
 49722,0.00027037,-0.00018264,-0.33508199,0.10386744,0.17384310,0.35288
 595,0.00144883,0.00108540,-0.00043268,-0.00050787,0.00030369,0.0000882
 7,0.00029883,-0.00064068,-0.00030350,-0.00083479,0.00109875,-0.0018424
 7,0.02797682,-0.01324990,-0.01390954,0.00162224,-0.00123714,0.00413811
 ,0.00001588,-0.00029933,0.00010371,-0.00011982,-0.00000129,-0.00000805
 ,-0.00009101,0.00015699,-0.00015638,-0.00023640,-0.00032355,-0.0002478
 6,-0.00073805,0.00426919,0.00151690,-0.00091357,-0.00117083,0.00002818
 ,0.00009015,0.00038848,0.00012367,0.00007922,-0.00010735,-0.00015279,0
 .00035491,-0.00049536,-0.00031374,-0.00102161,0.00013318,0.00096464,0.
 00011514,-0.00003809,-0.00011210,-0.00003721,-0.00007993,0.00000243,0.
 00007504,-0.00000579,-0.00006894,-0.00004826,-0.00003928,0.00000670,-0
 .00071674,-0.00146058,-0.00089051,-0.00198139,-0.00842792,-0.00107269,
 0.00184334,0.00023467,-0.00046946,-0.00041521,-0.00006677,0.00120759,0
 .08277945,-0.04818822,-0.02378075,-0.10903792,0.06816166,-0.00000059,0
 .00015026,0.00165068,0.00014223,0.00027023,-0.00058281,0.00005619,-0.0
 0000252,-0.00061061,-0.00314541,0.00143303,0.00041610,-0.02373262,0.00
 502102,0.01327663,-0.00275592,0.00469413,-0.00226182,-0.00025728,0.000
 15473,-0.00019538,0.00008913,-0.00007188,-0.00008094,-0.00001861,0.000
 03084,-0.00004196,-0.00026484,-0.00021702,-0.00001693,0.00209592,0.005
 36391,0.00031522,-0.00092383,-0.00109811,0.00018754,0.00019443,0.00024
 314,0.00020177,-0.00010136,-0.00023038,-0.00002592,0.00027344,-0.00015
 711,-0.00031987,-0.00078278,-0.00016526,0.00035172,0.00008896,-0.00001
 131,-0.00012282,-0.00006667,-0.00007693,0.00001134,0.00002569,-0.00002
 525,-0.00004001,-0.00004735,-0.00009163,-0.00000809,-0.00013494,-0.000
 79590,0.00006107,-0.00233207,-0.00320624,-0.00212917,-0.00016531,-0.00
 075469,-0.00053867,0.00087980,0.00050598,-0.00144156,0.20804836,-0.046
 54431,-0.15203609,-0.17716459,0.03558126,0.14398060\\-0.00000121,0.000
 00075,0.00000190,-0.00000155,0.00000132,-0.00000221,-0.00000026,0.0000
 0146,-0.00000033,0.00000113,0.00000040,-0.00000232,0.00000194,-0.00000
 276,0.00000581,-0.00000185,-0.00000183,-0.00000035,-0.00000050,-0.0000
 0024,0.00000057,-0.00000070,-0.00000018,0.00000032,0.00000010,-0.00000
 030,-0.00000004,-0.00000025,-0.00000064,0.00000074,-0.00000164,0.00001
 483,0.00000835,0.00000391,0.00000025,-0.00000315,0.00000115,-0.0000040
 5,-0.00000282,-0.00000305,0.00000423,0.00000319,0.00000598,0.00000574,
 -0.00000248,-0.00000285,-0.00001116,-0.00000061,-0.00000066,0.00000016
 ,-0.00000061,0.00000020,0.00000116,-0.00000038,0.00000031,0.00000035,-
 0.00000012,-0.00000042,0.00000002,0.00000069,-0.00000005,0.00000102,-0
 .00000132,-0.00000808,-0.00001463,-0.00000476,-0.00000038,0.00000214,0
 .00000401,-0.00000083,0.00000131,0.00000004,0.00000363,0.00000517,-0.0
 0000802,0.00000592,-0.00000450,0.00000387\\\@


 A FOOL CAN ASK MORE QUESTIONS THAN
 A WISE MAN CAN ANSWER.
 Job cpu time:       0 days  4 hours 14 minutes 27.9 seconds.
 Elapsed time:       0 days  0 hours 31 minutes 53.4 seconds.
 File lengths (MBytes):  RWF=    272 Int=      0 D2E=      0 Chk=     10 Scr=      1
 Normal termination of Gaussian 16 at Tue Dec 18 14:50:05 2018.
