 Entering Gaussian System, Link 0=g16
 Input=dimero_b3lypd3_n07d_ccl4_of.com
 Output=dimero_b3lypd3_n07d_ccl4_of.log
 AtFile(1): N07D_B3LYP.gbs
             -H 0
             6-31G
             P   1 1.00       0.000000000000
                  0.7500000000D+00  0.10000000D+01
             ****
             -He 0
             6-31G**
             ****
             -Li 0
             6-31+G**
             ****
             -Be 0
             6-31+G**
             ****
             -B 0
             6-31G
             P   1 1.00       0.000000000000
                  0.3500000000D-01  0.1000000000D+01
             D   1 1.00       0.000000000000
                  0.3430000000D+00  0.1000000000D+01
             ****
             -C 0
             6-31G
             S   1 1.00       0.000000000000
                  0.7500000000D+01  0.1000000000D+01
             P   1 1.00       0.000000000000
                  0.5000000000D-01  0.1000000000D+01
             D   1 1.00       0.000000000000
                  0.8200000000D+00  0.1000000000D+01
             ****
             -N 0
             6-31G
             S   1 1.00       0.000000000000
                  0.1260000000D+02  0.1000000000D+01
             P   1 1.00       0.000000000000
                  0.5300000000D-01  0.1000000000D+01
             D   1 1.00       0.000000000000
                  0.1015000000D+01  0.1000000000D+01
             ****
             -O 0
             6-31G
             S   1 1.00
                  0.1510000000D+02  0.1000000000D+01
             P   1 1.00       0.000000000000
                  0.6500000000D-01  0.1000000000D+01
             D   1 1.00        0.000000000000
                  0.1190000000D+01  0.1000000000D+01
             D   1 1.00        0.000000000000
                  0.1800000000D+00  0.1000000000D+01
             ****
             -F 0
             6-31G
             S   1 1.00
                  0.1830000000D+02  0.1000000000D+01
             P   1 1.00       0.000000000000
                  0.8300000000D-01  0.1000000000D+01
             D   1 1.00       0.000000000000
                  1.3700000000D+00  0.1000000000D+01
             D   1 1.00       0.000000000000
                  0.2300000000D+00  0.1000000000D+01
             ****
             -Ne 0
             6-31+G**
             ****
             -Na 0
             6-31+G**
             ****
             -Mg 0
             6-31+G**
             ****
             -Al 0
             6-31G
             S   1 1.00      0.000000000000
                  0.3100000000D+01  0.1000000000D+01
             P   1 1.00      0.000000000000
                  0.1500000000D-01  0.1000000000D+01
             D   1 1.00      0.000000000000
                  0.1890000000D+00  0.1000000000D+01
             ****
             -Si 0
             6-31G
             S   1 1.0
                  0.3600000000D+01  0.1000000000D+01
             P   1 1.00       0.000000000000
                  0.3300000000D-01  0.1000000000D+01
             D   1 1.0        0.000000000000
                  0.2750000000D+00  0.1000000000D+01
             ****
             -P  0
             6-31G
             S   1 1.00       0.000000000000
                  0.5500000000D+01  0.1000000000D+01
             P   1 1.00       0.000000000000
                  0.3500000000D-01  0.1000000000D+01
             D   1 1.00       0.000000000000
                  0.3730000000D+00  0.1000000000D+01
             ****
             -S  0
             6-31G
             S   1 1.00       0.000000000000
                  0.8000000000D+01  0.1000000000D+01
             P   1 1.00        0.000000000000
                  0.4100000000D-01  0.1000000000D+01
             D   1 1.00        0.000000000000
                  0.4790000000D+00  0.1000000000D+01
             ****
            -Cl 0
             6-31G
             S   1 1.00      0.000000000000
                  0.8500000000D+01  0.1000000000D+01
             P   1 1.00      0.000000000000
                  0.4800000000D-01  0.1000000000D+01
             D   1 1.00      0.000000000000
                  0.6000000000D+00  0.1000000000D+01
             D   1 1.00       0.000000000000
                  0.1960000000D+00  0.1000000000D+01
             ****
            -Br 0
             S   3 1.00       0.000000000000
                  0.4721881000D+01  0.1749732514D+00
                  0.2257555000D+01 -0.7074172290D+00
                  0.3896080000D+00  0.1258999543D+01
             S   1 1.00       0.000000000000
                  0.1471340000D+00  0.1000000000D+01
             P   3 1.00       0.000000000000
                  0.1896942000D+01 -0.2464576731D+00
                  0.9108990000D+00  0.3623179892D+00
                  0.3168550000D+00  0.8338469725D+00
             P   1 1.00       0.000000000000
                  0.1095030000D+00  0.1000000000D+01
             P   1 1.00       0.000000000000
                  0.3609700000D-01  0.1000000000D+01
             D   1 1.00
                  0.4750000000D+00  0.1000000000D+01
             D   1 1.00
                  0.1280000000D+00  0.1000000000D+01
             ****
            -I   0
             S   3 1.00       0.000000000000
                  0.2122765000D+01  0.2063429899D+01
                  0.1770481000D+01 -0.2869526473D+01
                  0.3130840000D+00  0.1404747074D+01
             S   1 1.00       0.000000000000
                  0.1320000000D+00  0.1000000000D+01
             P   3 1.00       0.000000000000
                  0.2432887000D+01  0.7732753148D+00
                  0.2137249000D+01 -0.1020833156D+01
                  0.3145460000D+00  0.1095666871D+01
             P   1 1.00       0.000000000000
                  0.1049450000D+00  0.1000000000D+01
             P   1 1.00       0.000000000000
                  0.3264100000D-01  0.1000000000D+01
             D   1 1.00
                  0.300000000          1.00000000
             D   1 1.00
                  0.090000000          1.00000000
             ****
             -Zn 0
             SP   6 1.00       0.000000000000
                  0.6936492000D+02 -0.4440098182D-02 -0.7689261805D-02
                  0.2362082000D+02  0.7505253308D-01 -0.2997981924D-01
                  0.1018471000D+02  0.2533111104D+00  0.7082410821D-01
                  0.4334082000D+01 -0.2881897118D+00  0.4046140897D+00
                  0.1810918000D+01 -0.7267052298D+00  0.4882324876D+00
                  0.7148410000D+00 -0.2133439088D+00  0.1751969956D+00
             SP   3 1.00       0.000000000000
                  0.2823842000D+01  0.4898545031D-01 -0.1586762981D+00
                  0.1039543000D+01  0.2592794075D+00  0.8379326898D-01
                  0.1432640000D+00 -0.1115711463D+01  0.9840546881D+00
             SP   1 1.00       0.000000000000
                  0.4929600000D-01  0.1000000000D+01  0.1000000000D+01
             S    1 1.00       0.000000000000
                  0.1620000000D+00  0.1000000000D+01
             D    3 1.00       0.000000000000
                  0.3370764000D+02  0.9262647815D-01
                  0.9061106000D+01  0.4002979920D+00
                  0.2738383000D+01  0.6896607863D+00
             D    1 1.00
                  0.2440000000D+01  0.1000000000D+01
             D    1 1.00       0.000000000000
                  0.7302940000D+00  0.1000000000D+01
             D    1 1.00       0.000000000000
                  0.1620000000D+00  0.1000000000D+01
             ****
             -Br,-I,-Zn 0
             SDDALL
            ****
 Initial command:
 /home/apps/g16avx/g16/l1.exe "/scratch/gaussian/jpablo/Gau-5713.inp" -scrdir="/scratch/gaussian/jpablo/"
 Entering Link 1 = /home/apps/g16avx/g16/l1.exe PID=      5714.
  
 Copyright (c) 1988,1990,1992,1993,1995,1998,2003,2009,2016,
            Gaussian, Inc.  All Rights Reserved.
  
 This is part of the Gaussian(R) 16 program.  It is based on
 the Gaussian(R) 09 system (copyright 2009, Gaussian, Inc.),
 the Gaussian(R) 03 system (copyright 2003, Gaussian, Inc.),
 the Gaussian(R) 98 system (copyright 1998, Gaussian, Inc.),
 the Gaussian(R) 94 system (copyright 1995, Gaussian, Inc.),
 the Gaussian 92(TM) system (copyright 1992, Gaussian, Inc.),
 the Gaussian 90(TM) system (copyright 1990, Gaussian, Inc.),
 the Gaussian 88(TM) system (copyright 1988, Gaussian, Inc.),
 the Gaussian 86(TM) system (copyright 1986, Carnegie Mellon
 University), and the Gaussian 82(TM) system (copyright 1983,
 Carnegie Mellon University). Gaussian is a federally registered
 trademark of Gaussian, Inc.
  
 This software contains proprietary and confidential information,
 including trade secrets, belonging to Gaussian, Inc.
  
 This software is provided under written license and may be
 used, copied, transmitted, or stored only in accord with that
 written license.
  
 The following legend is applicable only to US Government
 contracts under FAR:
  
                    RESTRICTED RIGHTS LEGEND
  
 Use, reproduction and disclosure by the US Government is
 subject to restrictions as set forth in subparagraphs (a)
 and (c) of the Commercial Computer Software - Restricted
 Rights clause in FAR 52.227-19.
  
 Gaussian, Inc.
 340 Quinnipiac St., Bldg. 40, Wallingford CT 06492
  
  
 ---------------------------------------------------------------
 Warning -- This program may not be used in any manner that
 competes with the business of Gaussian, Inc. or will provide
 assistance to any competitor of Gaussian, Inc.  The licensee
 of this program is prohibited from giving any competitor of
 Gaussian, Inc. access to this program.  By using this program,
 the user acknowledges that Gaussian, Inc. is engaged in the
 business of creating and licensing software in the field of
 computational chemistry and represents and warrants to the
 licensee that it is not a competitor of Gaussian, Inc. and that
 it will not use this program in any manner prohibited above.
 ---------------------------------------------------------------
  

 Cite this work as:
 Gaussian 16, Revision A.03,
 M. J. Frisch, G. W. Trucks, H. B. Schlegel, G. E. Scuseria, 
 M. A. Robb, J. R. Cheeseman, G. Scalmani, V. Barone, 
 G. A. Petersson, H. Nakatsuji, X. Li, M. Caricato, A. V. Marenich, 
 J. Bloino, B. G. Janesko, R. Gomperts, B. Mennucci, H. P. Hratchian, 
 J. V. Ortiz, A. F. Izmaylov, J. L. Sonnenberg, D. Williams-Young, 
 F. Ding, F. Lipparini, F. Egidi, J. Goings, B. Peng, A. Petrone, 
 T. Henderson, D. Ranasinghe, V. G. Zakrzewski, J. Gao, N. Rega, 
 G. Zheng, W. Liang, M. Hada, M. Ehara, K. Toyota, R. Fukuda, 
 J. Hasegawa, M. Ishida, T. Nakajima, Y. Honda, O. Kitao, H. Nakai, 
 T. Vreven, K. Throssell, J. A. Montgomery, Jr., J. E. Peralta, 
 F. Ogliaro, M. J. Bearpark, J. J. Heyd, E. N. Brothers, K. N. Kudin, 
 V. N. Staroverov, T. A. Keith, R. Kobayashi, J. Normand, 
 K. Raghavachari, A. P. Rendell, J. C. Burant, S. S. Iyengar, 
 J. Tomasi, M. Cossi, J. M. Millam, M. Klene, C. Adamo, R. Cammi, 
 J. W. Ochterski, R. L. Martin, K. Morokuma, O. Farkas, 
 J. B. Foresman, and D. J. Fox, Gaussian, Inc., Wallingford CT, 2016.
 
 ******************************************
 Gaussian 16:  ES64L-G16RevA.03 25-Dec-2016
                 4-Jan-2019 
 ******************************************
 %mem=2GB
 %nprocshared=8
 Will use up to    8 processors via shared memory.
 %chk=dimero_b3lypd3_n07d_ccl4_of.chk
 ----------------------------------------------------------------------
 #p opt freq b3lyp/gen scrf=(solvent=ccl4,pcm) geom=connectivity empiri
 caldispersion=gd3
 ----------------------------------------------------------------------
 1/18=20,19=15,26=3,38=1,57=2/1,3;
 2/9=110,12=2,17=6,18=5,40=1/2;
 3/5=7,11=2,25=1,30=1,70=2201,71=1,72=11,74=-5,124=31/1,2,3;
 4//1;
 5/5=2,38=5,53=11/2;
 6/7=2,8=2,9=2,10=2,28=1/1;
 7//1,2,3,16;
 1/18=20,19=15,26=3/3(2);
 2/9=110/2;
 99//99;
 2/9=110/2;
 3/5=7,6=1,11=2,25=1,30=1,70=2205,71=1,72=11,74=-5,82=7,124=31/1,2,3;
 4/5=5,16=3,69=1/1;
 5/5=2,38=5,53=11/2;
 7//1,2,3,16;
 1/18=20,19=15,26=3/3(-5);
 2/9=110/2;
 6/7=2,8=2,9=2,10=2,19=2,28=1/1;
 99/9=1/99;
 Leave Link    1 at Fri Jan  4 11:06:07 2019, MaxMem=   268435456 cpu:               0.8 elap:               0.1
 (Enter /home/apps/g16avx/g16/l101.exe)
 -------
 Título
 -------
 Symbolic Z-matrix:
 Charge =  0 Multiplicity = 1
 C                    -4.71721   0.17175   0.62067 
 C                    -4.70181   0.64684  -0.6943 
 C                    -3.50695   0.61509  -1.41402 
 C                    -2.33856   0.11656  -0.83522 
 C                    -2.36162  -0.35844   0.48329 
 C                    -3.55928  -0.32831   1.21067 
 H                    -5.64081   0.19046   1.194 
 H                    -5.60806   1.03589  -1.14943 
 H                    -3.47728   0.98134  -2.43739 
 H                    -3.55824  -0.69997   2.23089 
 C                     2.34101  -0.41159  -0.27364 
 C                     3.55623  -1.05992  -0.50229 
 C                     4.7517   -0.40199  -0.20782 
 C                     4.73699   0.89271   0.31134 
 C                     3.51314   1.52897   0.53566 
 C                     2.31198   0.88464   0.24564 
 H                     3.56913  -2.07063  -0.90666 
 H                     5.6957   -0.90938  -0.38661 
 H                     5.66873   1.40127   0.53989 
 H                     3.48994   2.53686   0.94078 
 H                     1.35604   1.36944   0.41734 
 O                     1.13001  -1.01288  -0.55113 
 H                     1.28852  -1.90914  -0.88749 
 H                    -1.40944   0.09534  -1.3998 
 O                    -1.25951  -0.85781   1.10857 
 H                    -0.4919   -0.83376   0.50511 
 
 Add virtual bond connecting atoms H26        and O22        Dist= 3.67D+00.
 ITRead=  0  0  0  0  0  0  0  0  0  0  0  0  0  0  0  0  0  0  0  0
 ITRead=  0  0  0  0  0  0
 MicOpt= -1 -1 -1 -1 -1 -1 -1 -1 -1 -1 -1 -1 -1 -1 -1 -1 -1 -1 -1 -1
 MicOpt= -1 -1 -1 -1 -1 -1
 NAtoms=     26 NQM=       26 NQMF=       0 NMMI=      0 NMMIF=      0
                NMic=       0 NMicF=      0.
                    Isotopes and Nuclear Properties:
 (Nuclear quadrupole moments (NQMom) in fm**2, nuclear magnetic moments (NMagM)
  in nuclear magnetons)

  Atom         1           2           3           4           5           6           7           8           9          10
 IAtWgt=          12          12          12          12          12          12           1           1           1           1
 AtmWgt=  12.0000000  12.0000000  12.0000000  12.0000000  12.0000000  12.0000000   1.0078250   1.0078250   1.0078250   1.0078250
 NucSpn=           0           0           0           0           0           0           1           1           1           1
 AtZEff=   0.0000000   0.0000000   0.0000000   0.0000000   0.0000000   0.0000000   0.0000000   0.0000000   0.0000000   0.0000000
 NQMom=    0.0000000   0.0000000   0.0000000   0.0000000   0.0000000   0.0000000   0.0000000   0.0000000   0.0000000   0.0000000
 NMagM=    0.0000000   0.0000000   0.0000000   0.0000000   0.0000000   0.0000000   2.7928460   2.7928460   2.7928460   2.7928460
 AtZNuc=   6.0000000   6.0000000   6.0000000   6.0000000   6.0000000   6.0000000   1.0000000   1.0000000   1.0000000   1.0000000

  Atom        11          12          13          14          15          16          17          18          19          20
 IAtWgt=          12          12          12          12          12          12           1           1           1           1
 AtmWgt=  12.0000000  12.0000000  12.0000000  12.0000000  12.0000000  12.0000000   1.0078250   1.0078250   1.0078250   1.0078250
 NucSpn=           0           0           0           0           0           0           1           1           1           1
 AtZEff=   0.0000000   0.0000000   0.0000000   0.0000000   0.0000000   0.0000000   0.0000000   0.0000000   0.0000000   0.0000000
 NQMom=    0.0000000   0.0000000   0.0000000   0.0000000   0.0000000   0.0000000   0.0000000   0.0000000   0.0000000   0.0000000
 NMagM=    0.0000000   0.0000000   0.0000000   0.0000000   0.0000000   0.0000000   2.7928460   2.7928460   2.7928460   2.7928460
 AtZNuc=   6.0000000   6.0000000   6.0000000   6.0000000   6.0000000   6.0000000   1.0000000   1.0000000   1.0000000   1.0000000

  Atom        21          22          23          24          25          26
 IAtWgt=           1          16           1           1          16           1
 AtmWgt=   1.0078250  15.9949146   1.0078250   1.0078250  15.9949146   1.0078250
 NucSpn=           1           0           1           1           0           1
 AtZEff=   0.0000000   0.0000000   0.0000000   0.0000000   0.0000000   0.0000000
 NQMom=    0.0000000   0.0000000   0.0000000   0.0000000   0.0000000   0.0000000
 NMagM=    2.7928460   0.0000000   2.7928460   2.7928460   0.0000000   2.7928460
 AtZNuc=   1.0000000   8.0000000   1.0000000   1.0000000   8.0000000   1.0000000
 Leave Link  101 at Fri Jan  4 11:06:08 2019, MaxMem=   268435456 cpu:               1.6 elap:               0.2
 (Enter /home/apps/g16avx/g16/l103.exe)

 GradGradGradGradGradGradGradGradGradGradGradGradGradGradGradGradGradGrad
 Berny optimization.
 Initialization pass.
                           ----------------------------
                           !    Initial Parameters    !
                           ! (Angstroms and Degrees)  !
 --------------------------                            --------------------------
 ! Name  Definition              Value          Derivative Info.                !
 --------------------------------------------------------------------------------
 ! R1    R(1,2)                  1.3982         estimate D2E/DX2                !
 ! R2    R(1,6)                  1.3925         estimate D2E/DX2                !
 ! R3    R(1,7)                  1.0872         estimate D2E/DX2                !
 ! R4    R(2,3)                  1.3952         estimate D2E/DX2                !
 ! R5    R(2,8)                  1.0862         estimate D2E/DX2                !
 ! R6    R(3,4)                  1.396          estimate D2E/DX2                !
 ! R7    R(3,9)                  1.0873         estimate D2E/DX2                !
 ! R8    R(4,5)                  1.4017         estimate D2E/DX2                !
 ! R9    R(4,24)                 1.0874         estimate D2E/DX2                !
 ! R10   R(5,6)                  1.4016         estimate D2E/DX2                !
 ! R11   R(5,25)                 1.362          estimate D2E/DX2                !
 ! R12   R(6,10)                 1.0858         estimate D2E/DX2                !
 ! R13   R(11,12)                1.3962         estimate D2E/DX2                !
 ! R14   R(11,16)                1.3967         estimate D2E/DX2                !
 ! R15   R(11,22)                1.3802         estimate D2E/DX2                !
 ! R16   R(12,13)                1.396          estimate D2E/DX2                !
 ! R17   R(12,17)                1.0887         estimate D2E/DX2                !
 ! R18   R(13,14)                1.395          estimate D2E/DX2                !
 ! R19   R(13,18)                1.0865         estimate D2E/DX2                !
 ! R20   R(14,15)                1.3975         estimate D2E/DX2                !
 ! R21   R(14,19)                1.0858         estimate D2E/DX2                !
 ! R22   R(15,16)                1.3936         estimate D2E/DX2                !
 ! R23   R(15,20)                1.0865         estimate D2E/DX2                !
 ! R24   R(16,21)                1.0855         estimate D2E/DX2                !
 ! R25   R(22,23)                0.9703         estimate D2E/DX2                !
 ! R26   R(22,26)                1.9438         estimate D2E/DX2                !
 ! R27   R(25,26)                0.9767         estimate D2E/DX2                !
 ! A1    A(2,1,6)              120.7528         estimate D2E/DX2                !
 ! A2    A(2,1,7)              119.9622         estimate D2E/DX2                !
 ! A3    A(6,1,7)              119.2851         estimate D2E/DX2                !
 ! A4    A(1,2,3)              119.1316         estimate D2E/DX2                !
 ! A5    A(1,2,8)              120.4359         estimate D2E/DX2                !
 ! A6    A(3,2,8)              120.4325         estimate D2E/DX2                !
 ! A7    A(2,3,4)              120.7322         estimate D2E/DX2                !
 ! A8    A(2,3,9)              120.0791         estimate D2E/DX2                !
 ! A9    A(4,3,9)              119.1887         estimate D2E/DX2                !
 ! A10   A(3,4,5)              119.8208         estimate D2E/DX2                !
 ! A11   A(3,4,24)             120.4538         estimate D2E/DX2                !
 ! A12   A(5,4,24)             119.7254         estimate D2E/DX2                !
 ! A13   A(4,5,6)              119.6676         estimate D2E/DX2                !
 ! A14   A(4,5,25)             122.8747         estimate D2E/DX2                !
 ! A15   A(6,5,25)             117.4577         estimate D2E/DX2                !
 ! A16   A(1,6,5)              119.8951         estimate D2E/DX2                !
 ! A17   A(1,6,10)             121.4553         estimate D2E/DX2                !
 ! A18   A(5,6,10)             118.6496         estimate D2E/DX2                !
 ! A19   A(12,11,16)           120.6596         estimate D2E/DX2                !
 ! A20   A(12,11,22)           121.8999         estimate D2E/DX2                !
 ! A21   A(16,11,22)           117.4401         estimate D2E/DX2                !
 ! A22   A(11,12,13)           119.4701         estimate D2E/DX2                !
 ! A23   A(11,12,17)           120.1483         estimate D2E/DX2                !
 ! A24   A(13,12,17)           120.3816         estimate D2E/DX2                !
 ! A25   A(12,13,14)           120.4574         estimate D2E/DX2                !
 ! A26   A(12,13,18)           119.2901         estimate D2E/DX2                !
 ! A27   A(14,13,18)           120.2525         estimate D2E/DX2                !
 ! A28   A(13,14,15)           119.4413         estimate D2E/DX2                !
 ! A29   A(13,14,19)           120.2636         estimate D2E/DX2                !
 ! A30   A(15,14,19)           120.2951         estimate D2E/DX2                !
 ! A31   A(14,15,16)           120.7253         estimate D2E/DX2                !
 ! A32   A(14,15,20)           120.0593         estimate D2E/DX2                !
 ! A33   A(16,15,20)           119.2154         estimate D2E/DX2                !
 ! A34   A(11,16,15)           119.2463         estimate D2E/DX2                !
 ! A35   A(11,16,21)           119.446          estimate D2E/DX2                !
 ! A36   A(15,16,21)           121.3076         estimate D2E/DX2                !
 ! A37   A(11,22,23)           109.1929         estimate D2E/DX2                !
 ! A38   A(11,22,26)           125.6408         estimate D2E/DX2                !
 ! A39   A(23,22,26)           114.1913         estimate D2E/DX2                !
 ! A40   A(5,25,26)            110.0767         estimate D2E/DX2                !
 ! A41   L(22,26,25,4,-1)      187.3122         estimate D2E/DX2                !
 ! A42   L(22,26,25,4,-2)      175.6248         estimate D2E/DX2                !
 ! D1    D(6,1,2,3)             -0.0187         estimate D2E/DX2                !
 ! D2    D(6,1,2,8)           -179.9947         estimate D2E/DX2                !
 ! D3    D(7,1,2,3)            179.98           estimate D2E/DX2                !
 ! D4    D(7,1,2,8)              0.004          estimate D2E/DX2                !
 ! D5    D(2,1,6,5)             -0.002          estimate D2E/DX2                !
 ! D6    D(2,1,6,10)           179.9922         estimate D2E/DX2                !
 ! D7    D(7,1,6,5)            179.9994         estimate D2E/DX2                !
 ! D8    D(7,1,6,10)            -0.0065         estimate D2E/DX2                !
 ! D9    D(1,2,3,4)              0.0176         estimate D2E/DX2                !
 ! D10   D(1,2,3,9)           -179.9519         estimate D2E/DX2                !
 ! D11   D(8,2,3,4)            179.9936         estimate D2E/DX2                !
 ! D12   D(8,2,3,9)              0.0241         estimate D2E/DX2                !
 ! D13   D(2,3,4,5)              0.0041         estimate D2E/DX2                !
 ! D14   D(2,3,4,24)          -179.9064         estimate D2E/DX2                !
 ! D15   D(9,3,4,5)            179.9739         estimate D2E/DX2                !
 ! D16   D(9,3,4,24)             0.0634         estimate D2E/DX2                !
 ! D17   D(3,4,5,6)             -0.0248         estimate D2E/DX2                !
 ! D18   D(3,4,5,25)           179.9906         estimate D2E/DX2                !
 ! D19   D(24,4,5,6)           179.8863         estimate D2E/DX2                !
 ! D20   D(24,4,5,25)           -0.0983         estimate D2E/DX2                !
 ! D21   D(4,5,6,1)              0.0238         estimate D2E/DX2                !
 ! D22   D(4,5,6,10)          -179.9705         estimate D2E/DX2                !
 ! D23   D(25,5,6,1)          -179.9908         estimate D2E/DX2                !
 ! D24   D(25,5,6,10)            0.0149         estimate D2E/DX2                !
 ! D25   D(4,5,25,26)           -0.395          estimate D2E/DX2                !
 ! D26   D(6,5,25,26)          179.6201         estimate D2E/DX2                !
 ! D27   D(16,11,12,13)         -0.0186         estimate D2E/DX2                !
 ! D28   D(16,11,12,17)        179.9559         estimate D2E/DX2                !
 ! D29   D(22,11,12,13)        179.7584         estimate D2E/DX2                !
 ! D30   D(22,11,12,17)         -0.2671         estimate D2E/DX2                !
 ! D31   D(12,11,16,15)         -0.019          estimate D2E/DX2                !
 ! D32   D(12,11,16,21)       -179.8906         estimate D2E/DX2                !
 ! D33   D(22,11,16,15)       -179.8056         estimate D2E/DX2                !
 ! D34   D(22,11,16,21)          0.3228         estimate D2E/DX2                !
 ! D35   D(12,11,22,23)          1.2922         estimate D2E/DX2                !
 ! D36   D(12,11,22,26)        142.8745         estimate D2E/DX2                !
 ! D37   D(16,11,22,23)       -178.924          estimate D2E/DX2                !
 ! D38   D(16,11,22,26)        -37.3418         estimate D2E/DX2                !
 ! D39   D(11,12,13,14)          0.0241         estimate D2E/DX2                !
 ! D40   D(11,12,13,18)        179.9812         estimate D2E/DX2                !
 ! D41   D(17,12,13,14)       -179.9504         estimate D2E/DX2                !
 ! D42   D(17,12,13,18)          0.0068         estimate D2E/DX2                !
 ! D43   D(12,13,14,15)          0.008          estimate D2E/DX2                !
 ! D44   D(12,13,14,19)        179.9582         estimate D2E/DX2                !
 ! D45   D(18,13,14,15)       -179.9487         estimate D2E/DX2                !
 ! D46   D(18,13,14,19)          0.0014         estimate D2E/DX2                !
 ! D47   D(13,14,15,16)         -0.0463         estimate D2E/DX2                !
 ! D48   D(13,14,15,20)        179.9285         estimate D2E/DX2                !
 ! D49   D(19,14,15,16)       -179.9965         estimate D2E/DX2                !
 ! D50   D(19,14,15,20)         -0.0217         estimate D2E/DX2                !
 ! D51   D(14,15,16,11)          0.0517         estimate D2E/DX2                !
 ! D52   D(14,15,16,21)        179.9208         estimate D2E/DX2                !
 ! D53   D(20,15,16,11)       -179.9233         estimate D2E/DX2                !
 ! D54   D(20,15,16,21)         -0.0542         estimate D2E/DX2                !
 ! D55   D(11,22,25,5)         122.589          estimate D2E/DX2                !
 ! D56   D(23,22,25,5)        -100.3898         estimate D2E/DX2                !
 --------------------------------------------------------------------------------
 Trust Radius=3.00D-01 FncErr=1.00D-07 GrdErr=1.00D-06 EigMax=2.50D+02 EigMin=1.00D-04
 Number of steps in this run=    135 maximum allowed number of steps=    156.
 GradGradGradGradGradGradGradGradGradGradGradGradGradGradGradGradGradGrad

 Leave Link  103 at Fri Jan  4 11:06:09 2019, MaxMem=   268435456 cpu:               0.2 elap:               0.1
 (Enter /home/apps/g16avx/g16/l202.exe)
                          Input orientation:                          
 ---------------------------------------------------------------------
 Center     Atomic      Atomic             Coordinates (Angstroms)
 Number     Number       Type             X           Y           Z
 ---------------------------------------------------------------------
      1          6           0       -4.717210    0.171750    0.620670
      2          6           0       -4.701810    0.646840   -0.694300
      3          6           0       -3.506950    0.615090   -1.414020
      4          6           0       -2.338560    0.116560   -0.835220
      5          6           0       -2.361620   -0.358440    0.483290
      6          6           0       -3.559280   -0.328310    1.210670
      7          1           0       -5.640810    0.190460    1.194000
      8          1           0       -5.608060    1.035890   -1.149430
      9          1           0       -3.477280    0.981340   -2.437390
     10          1           0       -3.558240   -0.699970    2.230890
     11          6           0        2.341010   -0.411590   -0.273640
     12          6           0        3.556230   -1.059920   -0.502290
     13          6           0        4.751700   -0.401990   -0.207820
     14          6           0        4.736990    0.892710    0.311340
     15          6           0        3.513140    1.528970    0.535660
     16          6           0        2.311980    0.884640    0.245640
     17          1           0        3.569130   -2.070630   -0.906660
     18          1           0        5.695700   -0.909380   -0.386610
     19          1           0        5.668730    1.401270    0.539890
     20          1           0        3.489940    2.536860    0.940780
     21          1           0        1.356040    1.369440    0.417340
     22          8           0        1.130010   -1.012880   -0.551130
     23          1           0        1.288520   -1.909140   -0.887490
     24          1           0       -1.409440    0.095340   -1.399800
     25          8           0       -1.259510   -0.857810    1.108570
     26          1           0       -0.491900   -0.833760    0.505110
 ---------------------------------------------------------------------
                    Distance matrix (angstroms):
                    1          2          3          4          5
     1  C    0.000000
     2  C    1.398247   0.000000
     3  C    2.408577   1.395240   0.000000
     4  C    2.789379   2.426109   1.395950   0.000000
     5  C    2.418425   2.806028   2.420605   1.401651   0.000000
     6  C    1.392466   2.425944   2.789577   2.423578   1.401563
     7  H    1.087242   2.157703   3.396386   3.876603   3.399925
     8  H    2.161852   1.086182   2.159107   3.410795   3.892211
     9  H    3.397734   2.156322   1.087339   2.147435   3.401482
    10  H    2.167006   3.417365   3.875227   3.399319   2.145378
    11  C    7.138525   7.134321   6.045922   4.742646   4.763454
    12  C    8.439660   8.434757   7.316107   6.020257   6.040231
    13  C    9.522386   9.523947   8.408012   7.136828   7.146947
    14  C    9.486694   9.495405   8.427128   7.209745   7.210077
    15  C    8.341938   8.353224   7.342894   6.173865   6.170726
    16  C    7.075194   7.080486   6.056986   4.835879   4.841928
    17  H    8.719199   8.708512   7.585606   6.299977   6.327507
    18  H   10.517231  10.517828   9.384474   8.111913   8.122848
    19  H   10.458776  10.470935   9.414295   8.225454   8.221089
    20  H    8.547136   8.564487   7.628549   6.556176   6.544678
    21  H    6.193559   6.201245   5.250866   4.097400   4.100112
    22  O    6.080004   6.065088   4.989616   3.658869   3.699973
    23  H    6.532491   6.515705   5.444768   4.154745   4.196097
    24  H    3.876787   3.411976   2.160993   1.087412   2.158377
    25  O    3.640567   4.166982   3.685632   2.427358   1.361981
    26  H    4.344842   4.621050   3.856521   2.471790   1.929315
                    6          7          8          9         10
     6  C    0.000000
     7  H    2.145266   0.000000
     8  H    3.410075   2.491483   0.000000
     9  H    3.876886   4.300389   2.490390   0.000000
    10  H    1.085809   2.491005   4.317584   4.962479   0.000000
    11  C    6.084697   8.137929   8.127110   6.361962   6.415371
    12  C    7.355268   9.435380   9.423132   7.575065   7.629910
    13  C    8.431485  10.503350  10.501369   8.637169   8.665518
    14  C    8.433729  10.438916  10.448656   8.662425   8.662110
    15  C    7.343313   9.274687   9.288646   7.616095   7.605682
    16  C    6.072415   8.039163   8.043390   6.381499   6.396225
    17  H    7.637604   9.713305   9.691760   7.830041   7.907106
    18  H    9.409761  11.498888  11.495258   9.587705   9.619281
    19  H    9.412628  11.392963  11.408475   9.627566   9.613099
    20  H    7.614036   9.430817   9.454919   7.897710   7.862461
    21  H    5.260428   7.137864   7.145958   5.626819   5.632190
    22  O    5.055889   7.094893   7.068027   5.363023   5.460516
    23  H    5.513843   7.533693   7.503641   5.785319   5.888758
    24  H    3.408203   4.964004   4.309957   2.477408   4.293224
    25  O    2.362147   4.505769   5.253052   4.568896   2.562943
    26  H    3.187807   5.294797   5.692819   4.567865   3.521173
                   11         12         13         14         15
    11  C    0.000000
    12  C    1.396199   0.000000
    13  C    2.411607   1.395970   0.000000
    14  C    2.790004   2.422592   1.394988   0.000000
    15  C    2.407203   2.789543   2.411514   1.397482   0.000000
    16  C    1.396677   2.426700   2.795224   2.425913   1.393577
    17  H    2.159029   1.088676   2.161298   3.410103   3.878214
    18  H    3.393303   2.147877   1.086530   2.157264   3.399956
    19  H    3.875824   3.406795   2.156794   1.085821   2.159373
    20  H    3.389427   3.876038   3.398258   2.157442   1.086509
    21  H    2.149346   3.404166   3.880631   3.416040   2.166225
    22  O    1.380243   2.427167   3.688860   4.169584   3.649852
    23  H    1.930597   2.451951   3.837586   4.602119   4.335307
    24  H    3.948555   5.176681   6.295062   6.429806   5.480246
    25  O    3.882443   5.082034   6.170519   6.297453   5.366855
    26  H    2.968174   4.177722   5.309429   5.509949   4.650137
                   16         17         18         19         20
    16  C    0.000000
    17  H    3.412014   0.000000
    18  H    3.881728   2.478155   0.000000
    19  H    3.408997   4.307542   2.489625   0.000000
    20  H    2.144910   4.964702   4.301617   2.489458   0.000000
    21  H    1.085511   4.299398   4.967092   4.314548   2.488049
    22  O    2.373284   2.682265   4.569825   5.255323   4.516162
    23  H    3.183812   2.286401   4.546827   5.672959   5.287319
    24  H    4.144808   5.451676   7.247001   7.454418   5.953424
    25  O    4.066488   5.371019   7.114293   7.309401   5.840309
    26  H    3.298783   4.473802   6.251982   6.553620   5.235068
                   21         22         23         24         25
    21  H    0.000000
    22  O    2.581564   0.000000
    23  H    3.529338   0.970333   0.000000
    24  H    3.545872   2.897792   3.399910   0.000000
    25  O    3.504218   2.913496   3.403235   2.687544   0.000000
    26  H    2.876921   1.943790   2.503132   2.309500   0.976713
                   26
    26  H    0.000000
 Stoichiometry    C12H12O2
 Framework group  C1[X(C12H12O2)]
 Deg. of freedom    72
 Full point group                 C1      NOp   1
 Largest Abelian subgroup         C1      NOp   1
 Largest concise Abelian subgroup C1      NOp   1
                         Standard orientation:                         
 ---------------------------------------------------------------------
 Center     Atomic      Atomic             Coordinates (Angstroms)
 Number     Number       Type             X           Y           Z
 ---------------------------------------------------------------------
      1          6           0        4.717211    0.171748   -0.620670
      2          6           0        4.701811    0.646838    0.694300
      3          6           0        3.506951    0.615088    1.414020
      4          6           0        2.338561    0.116559    0.835220
      5          6           0        2.361620   -0.358441   -0.483290
      6          6           0        3.559280   -0.328312   -1.210670
      7          1           0        5.640811    0.190457   -1.194000
      8          1           0        5.608061    1.035887    1.149430
      9          1           0        3.477281    0.981338    2.437390
     10          1           0        3.558240   -0.699972   -2.230890
     11          6           0       -2.341010   -0.411590    0.273640
     12          6           0       -3.556230   -1.059919    0.502290
     13          6           0       -4.751700   -0.401989    0.207820
     14          6           0       -4.736989    0.892711   -0.311340
     15          6           0       -3.513139    1.528971   -0.535660
     16          6           0       -2.311979    0.884640   -0.245640
     17          1           0       -3.569130   -2.070629    0.906660
     18          1           0       -5.695700   -0.909379    0.386610
     19          1           0       -5.668729    1.401271   -0.539890
     20          1           0       -3.489939    2.536861   -0.940780
     21          1           0       -1.356039    1.369440   -0.417340
     22          8           0       -1.130010   -1.012880    0.551130
     23          1           0       -1.288520   -1.909140    0.887490
     24          1           0        1.409441    0.095339    1.399800
     25          8           0        1.259510   -0.857811   -1.108570
     26          1           0        0.491900   -0.833761   -0.505110
 ---------------------------------------------------------------------
 Rotational constants (GHZ):           2.0662124           0.2215477           0.2203686
 Leave Link  202 at Fri Jan  4 11:06:09 2019, MaxMem=   268435456 cpu:               0.5 elap:               0.1
 (Enter /home/apps/g16avx/g16/l301.exe)
 General basis read from cards:  (5D, 7F)
 Centers:       7      8      9     10     17     18     19     20     21     23
 Centers:      24     26
 6-31G
 P 1 1.00 0.000000000000
     Exponent=  7.5000000000D-01 Coefficients=  1.0000000000D+00
 ****
 Centers:       1      2      3      4      5      6     11     12     13     14
 Centers:      15     16
 6-31G
 S 1 1.00 0.000000000000
     Exponent=  7.5000000000D+00 Coefficients=  1.0000000000D+00
 P 1 1.00 0.000000000000
     Exponent=  5.0000000000D-02 Coefficients=  1.0000000000D+00
 D 1 1.00 0.000000000000
     Exponent=  8.2000000000D-01 Coefficients=  1.0000000000D+00
 ****
 Centers:      22     25
 6-31G
 S 1 1.00
     Exponent=  1.5100000000D+01 Coefficients=  1.0000000000D+00
 P 1 1.00 0.000000000000
     Exponent=  6.5000000000D-02 Coefficients=  1.0000000000D+00
 D 1 1.00 0.000000000000
     Exponent=  1.1900000000D+00 Coefficients=  1.0000000000D+00
 D 1 1.00 0.000000000000
     Exponent=  1.8000000000D-01 Coefficients=  1.0000000000D+00
 ****
 Ernie: Thresh=  0.10000D-02 Tol=  0.10000D-05 Strict=F.
 There are   338 symmetry adapted cartesian basis functions of A   symmetry.
 There are   322 symmetry adapted basis functions of A   symmetry.
   322 basis functions,   544 primitive gaussians,   338 cartesian basis functions
    50 alpha electrons       50 beta electrons
       nuclear repulsion energy       763.5154198201 Hartrees.
 IExCor=  402 DFT=T Ex+Corr=B3LYP ExCW=0 ScaHFX=  0.200000
 ScaDFX=  0.800000  0.720000  1.000000  0.810000 ScalE2=  1.000000  1.000000
 IRadAn=      5 IRanWt=     -1 IRanGd=            0 ICorTp=0 IEmpDi=131
 NAtoms=   26 NActive=   26 NUniq=   26 SFac= 1.00D+00 NAtFMM=   60 NAOKFM=F Big=F
 Integral buffers will be    131072 words long.
 Raffenetti 2 integral format.
 Two-electron integral symmetry is turned on.
 R6Disp:  Grimme-D3 Dispersion energy=       -0.0166356061 Hartrees.
 Nuclear repulsion after empirical dispersion term =      763.4987842141 Hartrees.
 ------------------------------------------------------------------------------
 Polarizable Continuum Model (PCM)
 =================================
 Model                : PCM.
 Atomic radii         : UFF (Universal Force Field).
 Polarization charges : Total charges.
 Charge compensation  : None.
 Solution method      : On-the-fly selection.
 Cavity type          : Scaled VdW (van der Waals Surface) (Alpha=1.100).
 Cavity algorithm     : GePol (No added spheres)
                        Default sphere list used, NSphG=   26.
                        Lebedev-Laikov grids with approx.  5.0 points / Ang**2.
                        Smoothing algorithm: York/Karplus (Gamma=1.0000).
                        Polarization charges: spherical gaussians, with
                                              point-specific exponents (IZeta= 3).
                        Self-potential: point-specific (ISelfS= 7).
                        Self-field    : sphere-specific E.n sum rule (ISelfD= 2).
 1st derivatives      : Analytical E(r).r(x)/FMM algorithm (CHGder, D1EAlg=3).
                        Cavity 1st derivative terms included.
 Solvent              : CarbonTetraChloride, Eps=   2.228000 Eps(inf)=   2.131892
 ------------------------------------------------------------------------------
 GePol: Number of generator spheres                  =      26
 GePol: Total number of spheres                      =      26
 GePol: Number of exposed spheres                    =      26 (100.00%)
 GePol: Number of points                             =    2202
 GePol: Average weight of points                     =       0.13
 GePol: Minimum weight of points                     =   0.27D-11
 GePol: Maximum weight of points                     =    0.20577
 GePol: Number of points with low weight             =     151
 GePol: Fraction of low-weight points (<1% of avg)   =       6.86%
 GePol: Cavity surface area                          =    287.307 Ang**2
 GePol: Cavity volume                                =    287.239 Ang**3
 Leave Link  301 at Fri Jan  4 11:06:11 2019, MaxMem=   268435456 cpu:               1.6 elap:               0.2
 (Enter /home/apps/g16avx/g16/l302.exe)
 NPDir=0 NMtPBC=     1 NCelOv=     1 NCel=       1 NClECP=     1 NCelD=      1
         NCelK=      1 NCelE2=     1 NClLst=     1 CellRange=     0.0.
 One-electron integrals computed using PRISM.
 One-electron integral symmetry used in STVInt
 NBasis=   322 RedAO= T EigKep=  2.10D-05  NBF=   322
 NBsUse=   322 1.00D-06 EigRej= -1.00D+00 NBFU=   322
 Precomputing XC quadrature grid using
 IXCGrd= 4 IRadAn=           5 IRanWt=          -1 IRanGd=           0 AccXCQ= 0.00D+00.
 Generated NRdTot=       0 NPtTot=           0 NUsed=           0 NTot=          32
 NSgBfM=   330   330   330   330   330 MxSgAt=    26 MxSgA2=    26.
 Leave Link  302 at Fri Jan  4 11:06:13 2019, MaxMem=   268435456 cpu:               5.8 elap:               0.7
 (Enter /home/apps/g16avx/g16/l303.exe)
 DipDrv:  MaxL=1.
 Leave Link  303 at Fri Jan  4 11:06:14 2019, MaxMem=   268435456 cpu:               0.6 elap:               0.1
 (Enter /home/apps/g16avx/g16/l401.exe)
 ExpMin= 5.00D-02 ExpMax= 5.48D+03 ExpMxC= 8.25D+02 IAcc=3 IRadAn=         5 AccDes= 0.00D+00
 Harris functional with IExCor=  402 and IRadAn=       5 diagonalized for initial guess.
 HarFok:  IExCor=  402 AccDes= 0.00D+00 IRadAn=         5 IDoV= 1 UseB2=F ITyADJ=14
 ICtDFT=  3500011 ScaDFX=  1.000000  1.000000  1.000000  1.000000
 FoFCou: FMM=F IPFlag=           0 FMFlag=      100000 FMFlg1=           0
         NFxFlg=           0 DoJE=T BraDBF=F KetDBF=T FulRan=T
         wScrn=  0.000000 ICntrl=       500 IOpCl=  0 I1Cent=   200000004 NGrid=           0
         NMat0=    1 NMatS0=      1 NMatT0=    0 NMatD0=    1 NMtDS0=    0 NMtDT0=    0
 Petite list used in FoFCou.
 Harris En= -615.034176331615    
 JPrj=0 DoOrth=F DoCkMO=F.
 Leave Link  401 at Fri Jan  4 11:06:19 2019, MaxMem=   268435456 cpu:              41.0 elap:               5.1
 (Enter /home/apps/g16avx/g16/l502.exe)
 Integral symmetry usage will be decided dynamically.
 Closed shell SCF:
 Using DIIS extrapolation, IDIIS=  1040.
 NGot=   268435456 LenX=   268200866 LenY=   268086181
 Requested convergence on RMS density matrix=1.00D-08 within 128 cycles.
 Requested convergence on MAX density matrix=1.00D-06.
 Requested convergence on             energy=1.00D-06.
 No special actions if energy rises.
 Fock matrices will be formed incrementally for  20 cycles.

 Cycle   1  Pass 1  IDiag  1:
 FoFJK:  IHMeth= 1 ICntrl=       0 DoSepK=F KAlg= 0 I1Cent=           0 FoldK=F
 IRaf= 770000000 NMat=       1 IRICut=       1 DoRegI=T DoRafI=F ISym2E= 0 IDoP0=0 IntGTp=1.
 FoFCou: FMM=F IPFlag=           0 FMFlag=      100000 FMFlg1=           0
         NFxFlg=           0 DoJE=F BraDBF=F KetDBF=F FulRan=T
         wScrn=  0.000000 ICntrl=         0 IOpCl=  0 I1Cent=           0 NGrid=           0
         NMat0=    1 NMatS0=      1 NMatT0=    0 NMatD0=    1 NMtDS0=    0 NMtDT0=    0
 Symmetry not used in FoFCou.
 Inv3:  Mode=1 IEnd=    14546412.
 Iteration    1 A*A^-1 deviation from unit magnitude is 5.33D-15 for   2174.
 Iteration    1 A*A^-1 deviation from orthogonality  is 2.18D-15 for   1905   1655.
 Iteration    1 A^-1*A deviation from unit magnitude is 5.33D-15 for   2174.
 Iteration    1 A^-1*A deviation from orthogonality  is 1.13D-15 for   1873   1687.
 E= -614.673589138624    
 DIIS: error= 2.02D-02 at cycle   1 NSaved=   1.
 NSaved= 1 IEnMin= 1 EnMin= -614.673589138624     IErMin= 1 ErrMin= 2.02D-02
 ErrMax= 2.02D-02  0.00D+00 EMaxC= 1.00D-01 BMatC= 3.12D-01 BMatP= 3.12D-01
 IDIUse=3 WtCom= 7.98D-01 WtEn= 2.02D-01
 Coeff-Com:  0.100D+01
 Coeff-En:   0.100D+01
 Coeff:      0.100D+01
 Gap=     0.211 Goal=   None    Shift=    0.000
 GapD=    0.211 DampG=1.000 DampE=0.500 DampFc=0.5000 IDamp=-1.
 Damping current iteration by 5.00D-01
 RMSDP=4.16D-03 MaxDP=1.01D-01              OVMax= 2.14D-01

 Cycle   2  Pass 1  IDiag  1:
 RMSU=  2.04D-03    CP:  9.75D-01
 E= -614.820300050532     Delta-E=       -0.146710911908 Rises=F Damp=T
 DIIS: error= 3.76D-03 at cycle   2 NSaved=   2.
 NSaved= 2 IEnMin= 2 EnMin= -614.820300050532     IErMin= 2 ErrMin= 3.76D-03
 ErrMax= 3.76D-03  0.00D+00 EMaxC= 1.00D-01 BMatC= 1.50D-02 BMatP= 3.12D-01
 IDIUse=3 WtCom= 9.62D-01 WtEn= 3.76D-02
 Coeff-Com:  0.640D-01 0.936D+00
 Coeff-En:   0.124D+00 0.876D+00
 Coeff:      0.663D-01 0.934D+00
 Gap=     0.233 Goal=   None    Shift=    0.000
 RMSDP=1.29D-03 MaxDP=3.15D-02 DE=-1.47D-01 OVMax= 1.41D-01

 Cycle   3  Pass 1  IDiag  1:
 RMSU=  1.23D-03    CP:  9.62D-01  8.51D-01
 E= -615.003425357082     Delta-E=       -0.183125306549 Rises=F Damp=F
 DIIS: error= 4.21D-03 at cycle   3 NSaved=   3.
 NSaved= 3 IEnMin= 3 EnMin= -615.003425357082     IErMin= 2 ErrMin= 3.76D-03
 ErrMax= 4.21D-03  0.00D+00 EMaxC= 1.00D-01 BMatC= 7.66D-03 BMatP= 1.50D-02
 IDIUse=3 WtCom= 9.58D-01 WtEn= 4.21D-02
 Coeff-Com: -0.149D-01 0.396D+00 0.619D+00
 Coeff-En:   0.000D+00 0.000D+00 0.100D+01
 Coeff:     -0.143D-01 0.379D+00 0.635D+00
 Gap=     0.200 Goal=   None    Shift=    0.000
 RMSDP=4.40D-04 MaxDP=2.09D-02 DE=-1.83D-01 OVMax= 4.84D-02

 Cycle   4  Pass 1  IDiag  1:
 RMSU=  3.84D-04    CP:  9.62D-01  9.02D-01  8.46D-01
 E= -615.007978823347     Delta-E=       -0.004553466266 Rises=F Damp=F
 DIIS: error= 3.14D-03 at cycle   4 NSaved=   4.
 NSaved= 4 IEnMin= 4 EnMin= -615.007978823347     IErMin= 4 ErrMin= 3.14D-03
 ErrMax= 3.14D-03  0.00D+00 EMaxC= 1.00D-01 BMatC= 3.28D-03 BMatP= 7.66D-03
 IDIUse=3 WtCom= 9.69D-01 WtEn= 3.14D-02
 Coeff-Com: -0.200D-01 0.119D+00 0.415D+00 0.486D+00
 Coeff-En:   0.000D+00 0.000D+00 0.334D+00 0.666D+00
 Coeff:     -0.194D-01 0.115D+00 0.413D+00 0.491D+00
 Gap=     0.198 Goal=   None    Shift=    0.000
 RMSDP=2.17D-04 MaxDP=7.70D-03 DE=-4.55D-03 OVMax= 2.11D-02

 Cycle   5  Pass 1  IDiag  1:
 RMSU=  1.00D-04    CP:  9.62D-01  9.02D-01  8.46D-01  4.99D-01
 E= -615.011693015264     Delta-E=       -0.003714191917 Rises=F Damp=F
 DIIS: error= 2.84D-04 at cycle   5 NSaved=   5.
 NSaved= 5 IEnMin= 5 EnMin= -615.011693015264     IErMin= 5 ErrMin= 2.84D-04
 ErrMax= 2.84D-04  0.00D+00 EMaxC= 1.00D-01 BMatC= 4.97D-05 BMatP= 3.28D-03
 IDIUse=3 WtCom= 9.97D-01 WtEn= 2.84D-03
 Coeff-Com: -0.630D-02 0.117D-01 0.898D-01 0.171D+00 0.734D+00
 Coeff-En:   0.000D+00 0.000D+00 0.000D+00 0.000D+00 0.100D+01
 Coeff:     -0.628D-02 0.117D-01 0.895D-01 0.171D+00 0.735D+00
 Gap=     0.199 Goal=   None    Shift=    0.000
 RMSDP=2.87D-05 MaxDP=1.19D-03 DE=-3.71D-03 OVMax= 2.69D-03

 Cycle   6  Pass 1  IDiag  1:
 RMSU=  1.89D-05    CP:  9.62D-01  9.06D-01  8.49D-01  5.38D-01  8.70D-01
 E= -615.011739030141     Delta-E=       -0.000046014877 Rises=F Damp=F
 DIIS: error= 8.59D-05 at cycle   6 NSaved=   6.
 NSaved= 6 IEnMin= 6 EnMin= -615.011739030141     IErMin= 6 ErrMin= 8.59D-05
 ErrMax= 8.59D-05  0.00D+00 EMaxC= 1.00D-01 BMatC= 9.91D-06 BMatP= 4.97D-05
 IDIUse=1 WtCom= 1.00D+00 WtEn= 0.00D+00
 Coeff-Com: -0.319D-02 0.338D-02 0.394D-01 0.836D-01 0.431D+00 0.446D+00
 Coeff:     -0.319D-02 0.338D-02 0.394D-01 0.836D-01 0.431D+00 0.446D+00
 Gap=     0.199 Goal=   None    Shift=    0.000
 RMSDP=1.03D-05 MaxDP=4.51D-04 DE=-4.60D-05 OVMax= 6.44D-04

 Cycle   7  Pass 1  IDiag  1:
 RMSU=  5.82D-06    CP:  9.62D-01  9.05D-01  8.52D-01  5.36D-01  8.58D-01
                    CP:  6.02D-01
 E= -615.011747474540     Delta-E=       -0.000008444399 Rises=F Damp=F
 DIIS: error= 1.50D-05 at cycle   7 NSaved=   7.
 NSaved= 7 IEnMin= 7 EnMin= -615.011747474540     IErMin= 7 ErrMin= 1.50D-05
 ErrMax= 1.50D-05  0.00D+00 EMaxC= 1.00D-01 BMatC= 1.87D-07 BMatP= 9.91D-06
 IDIUse=1 WtCom= 1.00D+00 WtEn= 0.00D+00
 Coeff-Com: -0.650D-03 0.104D-03 0.767D-02 0.180D-01 0.107D+00 0.165D+00
 Coeff-Com:  0.703D+00
 Coeff:     -0.650D-03 0.104D-03 0.767D-02 0.180D-01 0.107D+00 0.165D+00
 Coeff:      0.703D+00
 Gap=     0.199 Goal=   None    Shift=    0.000
 RMSDP=1.73D-06 MaxDP=8.02D-05 DE=-8.44D-06 OVMax= 1.51D-04

 Cycle   8  Pass 1  IDiag  1:
 RMSU=  1.53D-06    CP:  9.62D-01  9.05D-01  8.52D-01  5.36D-01  8.61D-01
                    CP:  6.25D-01  8.98D-01
 E= -615.011747585242     Delta-E=       -0.000000110702 Rises=F Damp=F
 DIIS: error= 8.55D-06 at cycle   8 NSaved=   8.
 NSaved= 8 IEnMin= 8 EnMin= -615.011747585242     IErMin= 8 ErrMin= 8.55D-06
 ErrMax= 8.55D-06  0.00D+00 EMaxC= 1.00D-01 BMatC= 5.38D-08 BMatP= 1.87D-07
 IDIUse=1 WtCom= 1.00D+00 WtEn= 0.00D+00
 Coeff-Com: -0.120D-03-0.262D-03 0.126D-02 0.387D-02 0.287D-01 0.598D-01
 Coeff-Com:  0.413D+00 0.494D+00
 Coeff:     -0.120D-03-0.262D-03 0.126D-02 0.387D-02 0.287D-01 0.598D-01
 Coeff:      0.413D+00 0.494D+00
 Gap=     0.199 Goal=   None    Shift=    0.000
 RMSDP=7.35D-07 MaxDP=3.24D-05 DE=-1.11D-07 OVMax= 8.01D-05

 Cycle   9  Pass 1  IDiag  1:
 RMSU=  4.17D-07    CP:  9.62D-01  9.05D-01  8.52D-01  5.36D-01  8.62D-01
                    CP:  6.26D-01  9.35D-01  6.37D-01
 E= -615.011747636694     Delta-E=       -0.000000051452 Rises=F Damp=F
 DIIS: error= 1.77D-06 at cycle   9 NSaved=   9.
 NSaved= 9 IEnMin= 9 EnMin= -615.011747636694     IErMin= 9 ErrMin= 1.77D-06
 ErrMax= 1.77D-06  0.00D+00 EMaxC= 1.00D-01 BMatC= 1.27D-09 BMatP= 5.38D-08
 IDIUse=1 WtCom= 1.00D+00 WtEn= 0.00D+00
 Coeff-Com:  0.204D-04-0.902D-04-0.255D-03-0.277D-03 0.252D-03 0.469D-02
 Coeff-Com:  0.776D-01 0.170D+00 0.748D+00
 Coeff:      0.204D-04-0.902D-04-0.255D-03-0.277D-03 0.252D-03 0.469D-02
 Coeff:      0.776D-01 0.170D+00 0.748D+00
 Gap=     0.199 Goal=   None    Shift=    0.000
 RMSDP=1.79D-07 MaxDP=6.69D-06 DE=-5.15D-08 OVMax= 1.92D-05

 Cycle  10  Pass 1  IDiag  1:
 RMSU=  1.15D-07    CP:  9.62D-01  9.05D-01  8.52D-01  5.36D-01  8.61D-01
                    CP:  6.27D-01  9.42D-01  7.00D-01  8.43D-01
 E= -615.011747637807     Delta-E=       -0.000000001113 Rises=F Damp=F
 DIIS: error= 8.84D-07 at cycle  10 NSaved=  10.
 NSaved=10 IEnMin=10 EnMin= -615.011747637807     IErMin=10 ErrMin= 8.84D-07
 ErrMax= 8.84D-07  0.00D+00 EMaxC= 1.00D-01 BMatC= 2.85D-10 BMatP= 1.27D-09
 IDIUse=1 WtCom= 1.00D+00 WtEn= 0.00D+00
 Coeff-Com:  0.143D-04-0.334D-04-0.163D-03-0.271D-03-0.801D-03 0.118D-03
 Coeff-Com:  0.236D-01 0.637D-01 0.404D+00 0.510D+00
 Coeff:      0.143D-04-0.334D-04-0.163D-03-0.271D-03-0.801D-03 0.118D-03
 Coeff:      0.236D-01 0.637D-01 0.404D+00 0.510D+00
 Gap=     0.199 Goal=   None    Shift=    0.000
 RMSDP=6.72D-08 MaxDP=3.52D-06 DE=-1.11D-09 OVMax= 9.95D-06

 Cycle  11  Pass 1  IDiag  1:
 RMSU=  4.97D-08    CP:  9.62D-01  9.05D-01  8.52D-01  5.36D-01  8.61D-01
                    CP:  6.27D-01  9.44D-01  6.94D-01  8.82D-01  6.67D-01
 E= -615.011747638107     Delta-E=       -0.000000000300 Rises=F Damp=F
 DIIS: error= 2.22D-07 at cycle  11 NSaved=  11.
 NSaved=11 IEnMin=11 EnMin= -615.011747638107     IErMin=11 ErrMin= 2.22D-07
 ErrMax= 2.22D-07  0.00D+00 EMaxC= 1.00D-01 BMatC= 3.32D-11 BMatP= 2.85D-10
 IDIUse=1 WtCom= 1.00D+00 WtEn= 0.00D+00
 Coeff-Com:  0.393D-05-0.770D-07-0.405D-04-0.110D-03-0.543D-03-0.104D-02
 Coeff-Com: -0.390D-02-0.452D-02 0.632D-01 0.275D+00 0.672D+00
 Coeff:      0.393D-05-0.770D-07-0.405D-04-0.110D-03-0.543D-03-0.104D-02
 Coeff:     -0.390D-02-0.452D-02 0.632D-01 0.275D+00 0.672D+00
 Gap=     0.199 Goal=   None    Shift=    0.000
 RMSDP=2.28D-08 MaxDP=7.30D-07 DE=-3.00D-10 OVMax= 2.20D-06

 Cycle  12  Pass 1  IDiag  1:
 RMSU=  1.17D-08    CP:  9.62D-01  9.05D-01  8.52D-01  5.36D-01  8.61D-01
                    CP:  6.27D-01  9.45D-01  6.96D-01  8.95D-01  7.65D-01
                    CP:  7.71D-01
 E= -615.011747638137     Delta-E=       -0.000000000029 Rises=F Damp=F
 DIIS: error= 2.75D-08 at cycle  12 NSaved=  12.
 NSaved=12 IEnMin=12 EnMin= -615.011747638137     IErMin=12 ErrMin= 2.75D-08
 ErrMax= 2.75D-08  0.00D+00 EMaxC= 1.00D-01 BMatC= 1.01D-12 BMatP= 3.32D-11
 IDIUse=1 WtCom= 1.00D+00 WtEn= 0.00D+00
 Coeff-Com:  0.118D-05 0.103D-05-0.111D-04-0.377D-04-0.205D-03-0.457D-03
 Coeff-Com: -0.260D-02-0.489D-02 0.110D-01 0.103D+00 0.280D+00 0.615D+00
 Coeff:      0.118D-05 0.103D-05-0.111D-04-0.377D-04-0.205D-03-0.457D-03
 Coeff:     -0.260D-02-0.489D-02 0.110D-01 0.103D+00 0.280D+00 0.615D+00
 Gap=     0.199 Goal=   None    Shift=    0.000
 RMSDP=4.58D-09 MaxDP=1.49D-07 DE=-2.91D-11 OVMax= 3.24D-07

 Error on total polarization charges =  0.01375
 SCF Done:  E(RB3LYP) =  -615.011747638     A.U. after   12 cycles
            NFock= 12  Conv=0.46D-08     -V/T= 2.0046
 KE= 6.121946350162D+02 PE=-2.959356619612D+03 EE= 9.686514527435D+02
 Leave Link  502 at Fri Jan  4 11:09:07 2019, MaxMem=   268435456 cpu:            1331.2 elap:             167.4
 (Enter /home/apps/g16avx/g16/l601.exe)
 Copying SCF densities to generalized density rwf, IOpCl= 0 IROHF=0.

 **********************************************************************

            Population analysis using the SCF density.

 **********************************************************************

 Orbital symmetries:
       Occupied  (A) (A) (A) (A) (A) (A) (A) (A) (A) (A) (A) (A)
                 (A) (A) (A) (A) (A) (A) (A) (A) (A) (A) (A) (A)
                 (A) (A) (A) (A) (A) (A) (A) (A) (A) (A) (A) (A)
                 (A) (A) (A) (A) (A) (A) (A) (A) (A) (A) (A) (A)
                 (A) (A)
       Virtual   (A) (A) (A) (A) (A) (A) (A) (A) (A) (A) (A) (A)
                 (A) (A) (A) (A) (A) (A) (A) (A) (A) (A) (A) (A)
                 (A) (A) (A) (A) (A) (A) (A) (A) (A) (A) (A) (A)
                 (A) (A) (A) (A) (A) (A) (A) (A) (A) (A) (A) (A)
                 (A) (A) (A) (A) (A) (A) (A) (A) (A) (A) (A) (A)
                 (A) (A) (A) (A) (A) (A) (A) (A) (A) (A) (A) (A)
                 (A) (A) (A) (A) (A) (A) (A) (A) (A) (A) (A) (A)
                 (A) (A) (A) (A) (A) (A) (A) (A) (A) (A) (A) (A)
                 (A) (A) (A) (A) (A) (A) (A) (A) (A) (A) (A) (A)
                 (A) (A) (A) (A) (A) (A) (A) (A) (A) (A) (A) (A)
                 (A) (A) (A) (A) (A) (A) (A) (A) (A) (A) (A) (A)
                 (A) (A) (A) (A) (A) (A) (A) (A) (A) (A) (A) (A)
                 (A) (A) (A) (A) (A) (A) (A) (A) (A) (A) (A) (A)
                 (A) (A) (A) (A) (A) (A) (A) (A) (A) (A) (A) (A)
                 (A) (A) (A) (A) (A) (A) (A) (A) (A) (A) (A) (A)
                 (A) (A) (A) (A) (A) (A) (A) (A) (A) (A) (A) (A)
                 (A) (A) (A) (A) (A) (A) (A) (A) (A) (A) (A) (A)
                 (A) (A) (A) (A) (A) (A) (A) (A) (A) (A) (A) (A)
                 (A) (A) (A) (A) (A) (A) (A) (A) (A) (A) (A) (A)
                 (A) (A) (A) (A) (A) (A) (A) (A) (A) (A) (A) (A)
                 (A) (A) (A) (A) (A) (A) (A) (A) (A) (A) (A) (A)
                 (A) (A) (A) (A) (A) (A) (A) (A) (A) (A) (A) (A)
                 (A) (A) (A) (A) (A) (A) (A) (A)
 The electronic state is 1-A.
 Alpha  occ. eigenvalues --  -19.20634 -19.17111 -10.26218 -10.24488 -10.20139
 Alpha  occ. eigenvalues --  -10.20026 -10.19985 -10.19565 -10.19229 -10.18914
 Alpha  occ. eigenvalues --  -10.18808 -10.18389 -10.18040 -10.17984  -1.08580
 Alpha  occ. eigenvalues --   -1.05663  -0.86629  -0.85086  -0.76428  -0.75448
 Alpha  occ. eigenvalues --   -0.74975  -0.73789  -0.64066  -0.62487  -0.61725
 Alpha  occ. eigenvalues --   -0.60203  -0.56077  -0.54378  -0.51354  -0.49974
 Alpha  occ. eigenvalues --   -0.48179  -0.46568  -0.45181  -0.43936  -0.43758
 Alpha  occ. eigenvalues --   -0.42971  -0.42402  -0.41687  -0.40895  -0.38657
 Alpha  occ. eigenvalues --   -0.37496  -0.36219  -0.35710  -0.35562  -0.33782
 Alpha  occ. eigenvalues --   -0.33704  -0.26942  -0.25680  -0.24493  -0.22542
 Alpha virt. eigenvalues --   -0.02689  -0.01464  -0.01324   0.00046   0.00889
 Alpha virt. eigenvalues --    0.02479   0.03105   0.03687   0.04522   0.04942
 Alpha virt. eigenvalues --    0.05600   0.06227   0.06722   0.07703   0.07828
 Alpha virt. eigenvalues --    0.08360   0.09331   0.09495   0.09763   0.09973
 Alpha virt. eigenvalues --    0.10683   0.11810   0.12380   0.12682   0.13304
 Alpha virt. eigenvalues --    0.14047   0.14150   0.14271   0.14818   0.15271
 Alpha virt. eigenvalues --    0.15671   0.15860   0.16166   0.16460   0.16904
 Alpha virt. eigenvalues --    0.17819   0.18314   0.18452   0.18964   0.20136
 Alpha virt. eigenvalues --    0.20685   0.21156   0.21849   0.22435   0.23632
 Alpha virt. eigenvalues --    0.24026   0.24186   0.24556   0.25228   0.25768
 Alpha virt. eigenvalues --    0.26456   0.26897   0.26974   0.27332   0.27896
 Alpha virt. eigenvalues --    0.28338   0.28854   0.29252   0.29971   0.30456
 Alpha virt. eigenvalues --    0.30913   0.34518   0.35237   0.35624   0.36100
 Alpha virt. eigenvalues --    0.36328   0.37162   0.37900   0.39201   0.40720
 Alpha virt. eigenvalues --    0.42104   0.44720   0.47209   0.48963   0.51560
 Alpha virt. eigenvalues --    0.53379   0.55176   0.56146   0.57209   0.58771
 Alpha virt. eigenvalues --    0.59059   0.59505   0.61016   0.62692   0.66189
 Alpha virt. eigenvalues --    0.67870   0.68232   0.69245   0.69600   0.70745
 Alpha virt. eigenvalues --    0.72404   0.73587   0.74015   0.74824   0.75039
 Alpha virt. eigenvalues --    0.75708   0.76388   0.76567   0.77004   0.77315
 Alpha virt. eigenvalues --    0.77902   0.78355   0.79407   0.80197   0.81212
 Alpha virt. eigenvalues --    0.82441   0.82980   0.84392   0.85405   0.86047
 Alpha virt. eigenvalues --    0.87132   0.89391   0.90229   0.91739   0.92271
 Alpha virt. eigenvalues --    0.92541   0.93864   0.94350   0.94703   0.95578
 Alpha virt. eigenvalues --    0.95833   0.97028   0.97806   0.98528   0.98858
 Alpha virt. eigenvalues --    0.99765   0.99941   1.02317   1.04039   1.05423
 Alpha virt. eigenvalues --    1.09259   1.09590   1.12070   1.12850   1.14326
 Alpha virt. eigenvalues --    1.15846   1.16427   1.16727   1.17613   1.17893
 Alpha virt. eigenvalues --    1.18554   1.20063   1.21337   1.22301   1.26278
 Alpha virt. eigenvalues --    1.27127   1.27428   1.28314   1.29685   1.31008
 Alpha virt. eigenvalues --    1.33735   1.39572   1.40175   1.40891   1.43246
 Alpha virt. eigenvalues --    1.48786   1.57983   1.59238   1.60850   1.62295
 Alpha virt. eigenvalues --    1.66180   1.66918   1.68175   1.69326   1.69409
 Alpha virt. eigenvalues --    1.72639   1.73587   1.74227   1.75107   1.75696
 Alpha virt. eigenvalues --    1.76590   1.77043   1.77375   1.77695   1.78337
 Alpha virt. eigenvalues --    1.79959   1.80783   1.82008   1.82859   1.83699
 Alpha virt. eigenvalues --    1.84850   1.85753   1.86470   1.87079   1.87671
 Alpha virt. eigenvalues --    1.88970   1.91202   1.92925   1.93294   1.93865
 Alpha virt. eigenvalues --    1.95454   1.96217   1.97234   1.98653   2.05637
 Alpha virt. eigenvalues --    2.06532   2.07599   2.10657   2.12242   2.14212
 Alpha virt. eigenvalues --    2.17007   2.19066   2.23362   2.26260   2.26783
 Alpha virt. eigenvalues --    2.27034   2.27338   2.28035   2.28970   2.29495
 Alpha virt. eigenvalues --    2.30652   2.32437   2.33723   2.34113   2.35023
 Alpha virt. eigenvalues --    2.35913   2.35977   2.37315   2.37506   2.39372
 Alpha virt. eigenvalues --    2.41514   2.45569   2.51939   2.52920   2.65743
 Alpha virt. eigenvalues --    2.66797   2.67305   2.68516   2.69435   2.70756
 Alpha virt. eigenvalues --    2.72732   2.73648   2.74462   2.75145   2.76686
 Alpha virt. eigenvalues --    2.77298   2.89624   2.90506   2.91773   2.94875
 Alpha virt. eigenvalues --    2.96067   2.96560   2.98415   3.02808   3.05120
 Alpha virt. eigenvalues --    3.05393   3.06450   3.07698   3.15698   3.17369
 Alpha virt. eigenvalues --    3.32724   3.34673   3.42977   3.48457   3.60832
 Alpha virt. eigenvalues --    3.63793   3.83576   3.90434  45.36604  45.38127
 Alpha virt. eigenvalues --   45.40506  45.41911  45.42207  45.43592  45.44234
 Alpha virt. eigenvalues --   45.44918  45.45652  45.46418  45.48531  45.49906
 Alpha virt. eigenvalues --   94.34543  94.40388
          Condensed to atoms (all electrons):
               1          2          3          4          5          6
     1  C    5.055214   0.574664  -0.096170  -0.098887  -0.097836   0.519594
     2  C    0.574664   4.926520   0.586114  -0.103945  -0.087230  -0.078098
     3  C   -0.096170   0.586114   5.006932   0.488043  -0.093228  -0.090582
     4  C   -0.098887  -0.103945   0.488043   5.095458   0.556027  -0.092600
     5  C   -0.097836  -0.087230  -0.093228   0.556027   4.621208   0.593910
     6  C    0.519594  -0.078098  -0.090582  -0.092600   0.593910   4.972235
     7  H    0.390518  -0.036591   0.009468   0.000355   0.007339  -0.044845
     8  H   -0.049550   0.393729  -0.031307   0.010046   0.003211   0.002254
     9  H    0.011006  -0.032534   0.389790  -0.048281   0.005816  -0.000200
    10  H   -0.033508   0.010104  -0.001787   0.007474  -0.044107   0.387378
    11  C    0.000345  -0.000110   0.001537  -0.010054   0.002264  -0.001544
    12  C   -0.000006  -0.000057   0.000391  -0.002507  -0.000606  -0.000365
    13  C    0.000002  -0.000010   0.000022  -0.000502   0.000222  -0.000070
    14  C   -0.000011   0.000001  -0.000039   0.000448   0.000022   0.000023
    15  C   -0.000106   0.000048   0.000002   0.003638   0.000375   0.000026
    16  C    0.000015   0.000169  -0.002293   0.008901   0.000408   0.003520
    17  H    0.000000   0.000000  -0.000010   0.000001   0.000002   0.000010
    18  H    0.000000   0.000000   0.000000   0.000003  -0.000003   0.000000
    19  H    0.000000   0.000000   0.000000   0.000000  -0.000001   0.000000
    20  H    0.000000   0.000000  -0.000006  -0.000009  -0.000004   0.000008
    21  H   -0.000037   0.000007  -0.000188   0.001605  -0.002250   0.000530
    22  O   -0.000537   0.001713   0.011775   0.007632  -0.026589  -0.003446
    23  H    0.000056  -0.000070  -0.000625  -0.002215   0.002426   0.000624
    24  H   -0.001920   0.011209  -0.026373   0.387721  -0.052979   0.005038
    25  O    0.004722   0.002567   0.004253  -0.080169   0.169616  -0.105559
    26  H   -0.000349   0.000236  -0.002179  -0.005673  -0.032413   0.011413
               7          8          9         10         11         12
     1  C    0.390518  -0.049550   0.011006  -0.033508   0.000345  -0.000006
     2  C   -0.036591   0.393729  -0.032534   0.010104  -0.000110  -0.000057
     3  C    0.009468  -0.031307   0.389790  -0.001787   0.001537   0.000391
     4  C    0.000355   0.010046  -0.048281   0.007474  -0.010054  -0.002507
     5  C    0.007339   0.003211   0.005816  -0.044107   0.002264  -0.000606
     6  C   -0.044845   0.002254  -0.000200   0.387378  -0.001544  -0.000365
     7  H    0.577296  -0.005710  -0.000156  -0.005806  -0.000008   0.000000
     8  H   -0.005710   0.578832  -0.005621  -0.000121   0.000001   0.000000
     9  H   -0.000156  -0.005621   0.579220   0.000013  -0.000108  -0.000008
    10  H   -0.005806  -0.000121   0.000013   0.572602  -0.000155  -0.000006
    11  C   -0.000008   0.000001  -0.000108  -0.000155   4.649151   0.546456
    12  C    0.000000   0.000000  -0.000008  -0.000006   0.546456   5.019706
    13  C    0.000000   0.000000  -0.000001  -0.000001  -0.100016   0.532709
    14  C    0.000000   0.000000   0.000001   0.000001  -0.094628  -0.079519
    15  C    0.000000   0.000000   0.000012   0.000009  -0.097086  -0.085419
    16  C    0.000008  -0.000003   0.000093   0.000138   0.606423  -0.086567
    17  H    0.000000   0.000000   0.000000   0.000000  -0.065120   0.389012
    18  H    0.000000   0.000000   0.000000   0.000000   0.012176  -0.029110
    19  H    0.000000   0.000000   0.000000   0.000000   0.004122   0.006297
    20  H    0.000000   0.000000   0.000000   0.000000   0.008557  -0.001337
    21  H    0.000000   0.000000   0.000000   0.000000  -0.040137   0.009364
    22  O    0.000004   0.000007   0.000108   0.000117   0.120883  -0.113541
    23  H    0.000000   0.000000   0.000000   0.000000  -0.034832  -0.008311
    24  H    0.000013  -0.000137  -0.006165  -0.000128  -0.009351  -0.003658
    25  O   -0.000784  -0.000094  -0.000973  -0.002935  -0.000057   0.003828
    26  H    0.000002   0.000000  -0.000004  -0.000067  -0.002404  -0.000424
              13         14         15         16         17         18
     1  C    0.000002  -0.000011  -0.000106   0.000015   0.000000   0.000000
     2  C   -0.000010   0.000001   0.000048   0.000169   0.000000   0.000000
     3  C    0.000022  -0.000039   0.000002  -0.002293  -0.000010   0.000000
     4  C   -0.000502   0.000448   0.003638   0.008901   0.000001   0.000003
     5  C    0.000222   0.000022   0.000375   0.000408   0.000002  -0.000003
     6  C   -0.000070   0.000023   0.000026   0.003520   0.000010   0.000000
     7  H    0.000000   0.000000   0.000000   0.000008   0.000000   0.000000
     8  H    0.000000   0.000000   0.000000  -0.000003   0.000000   0.000000
     9  H   -0.000001   0.000001   0.000012   0.000093   0.000000   0.000000
    10  H   -0.000001   0.000001   0.000009   0.000138   0.000000   0.000000
    11  C   -0.100016  -0.094628  -0.097086   0.606423  -0.065120   0.012176
    12  C    0.532709  -0.079519  -0.085419  -0.086567   0.389012  -0.029110
    13  C    5.010945   0.577206  -0.095680  -0.098089  -0.018192   0.388826
    14  C    0.577206   4.907447   0.573595  -0.090137   0.015100  -0.048019
    15  C   -0.095680   0.573595   5.034323   0.496953  -0.001752   0.003984
    16  C   -0.098089  -0.090137   0.496953   4.950651   0.001172   0.000134
    17  H   -0.018192   0.015100  -0.001752   0.001172   0.582565  -0.005808
    18  H    0.388826  -0.048019   0.003984   0.000134  -0.005808   0.568754
    19  H   -0.036600   0.393606  -0.042059   0.004048  -0.000132  -0.005624
    20  H    0.010937  -0.032879   0.391485  -0.048904   0.000012  -0.000150
    21  H   -0.002009   0.007028  -0.036231   0.386764  -0.000120   0.000013
    22  O    0.000008   0.003637   0.013569  -0.032915  -0.003686  -0.000825
    23  H   -0.001733   0.000263  -0.000499   0.010518   0.002589  -0.000009
    24  H   -0.000365   0.000224   0.002012   0.012336   0.000001   0.000000
    25  O    0.000265  -0.000245  -0.000537  -0.006467   0.000101   0.000004
    26  H   -0.000095   0.000070   0.000074   0.001630   0.000003   0.000000
              19         20         21         22         23         24
     1  C    0.000000   0.000000  -0.000037  -0.000537   0.000056  -0.001920
     2  C    0.000000   0.000000   0.000007   0.001713  -0.000070   0.011209
     3  C    0.000000  -0.000006  -0.000188   0.011775  -0.000625  -0.026373
     4  C    0.000000  -0.000009   0.001605   0.007632  -0.002215   0.387721
     5  C   -0.000001  -0.000004  -0.002250  -0.026589   0.002426  -0.052979
     6  C    0.000000   0.000008   0.000530  -0.003446   0.000624   0.005038
     7  H    0.000000   0.000000   0.000000   0.000004   0.000000   0.000013
     8  H    0.000000   0.000000   0.000000   0.000007   0.000000  -0.000137
     9  H    0.000000   0.000000   0.000000   0.000108   0.000000  -0.006165
    10  H    0.000000   0.000000   0.000000   0.000117   0.000000  -0.000128
    11  C    0.004122   0.008557  -0.040137   0.120883  -0.034832  -0.009351
    12  C    0.006297  -0.001337   0.009364  -0.113541  -0.008311  -0.003658
    13  C   -0.036600   0.010937  -0.002009   0.000008  -0.001733  -0.000365
    14  C    0.393606  -0.032879   0.007028   0.003637   0.000263   0.000224
    15  C   -0.042059   0.391485  -0.036231   0.013569  -0.000499   0.002012
    16  C    0.004048  -0.048904   0.386764  -0.032915   0.010518   0.012336
    17  H   -0.000132   0.000012  -0.000120  -0.003686   0.002589   0.000001
    18  H   -0.005624  -0.000150   0.000013  -0.000825  -0.000009   0.000000
    19  H    0.570697  -0.005612  -0.000121  -0.000106   0.000000   0.000000
    20  H   -0.005612   0.567449  -0.005905  -0.000704   0.000002   0.000000
    21  H   -0.000121  -0.005905   0.572234  -0.004973  -0.000142   0.000049
    22  O   -0.000106  -0.000704  -0.004973   8.296653   0.350986  -0.000597
    23  H    0.000000   0.000002  -0.000142   0.350986   0.379005  -0.000196
    24  H    0.000000   0.000000   0.000049  -0.000597  -0.000196   0.593140
    25  O    0.000001   0.000027   0.001858   0.006374   0.000307  -0.010092
    26  H    0.000000   0.000001   0.000169   0.033687  -0.001400   0.003881
              25         26
     1  C    0.004722  -0.000349
     2  C    0.002567   0.000236
     3  C    0.004253  -0.002179
     4  C   -0.080169  -0.005673
     5  C    0.169616  -0.032413
     6  C   -0.105559   0.011413
     7  H   -0.000784   0.000002
     8  H   -0.000094   0.000000
     9  H   -0.000973  -0.000004
    10  H   -0.002935  -0.000067
    11  C   -0.000057  -0.002404
    12  C    0.003828  -0.000424
    13  C    0.000265  -0.000095
    14  C   -0.000245   0.000070
    15  C   -0.000537   0.000074
    16  C   -0.006467   0.001630
    17  H    0.000101   0.000003
    18  H    0.000004   0.000000
    19  H    0.000001   0.000000
    20  H    0.000027   0.000001
    21  H    0.001858   0.000169
    22  O    0.006374   0.033687
    23  H    0.000307  -0.001400
    24  H   -0.010092   0.003881
    25  O    8.361955   0.332119
    26  H    0.332119   0.315649
 Mulliken charges:
               1
     1  C   -0.177218
     2  C   -0.168436
     3  C   -0.153540
     4  C   -0.122510
     5  C    0.474401
     6  C   -0.079253
     7  H    0.108897
     8  H    0.104464
     9  H    0.107991
    10  H    0.110785
    11  C    0.503694
    12  C   -0.096324
    13  C   -0.167780
    14  C   -0.133194
    15  C   -0.160734
    16  C   -0.118506
    17  H    0.104251
    18  H    0.115652
    19  H    0.111484
    20  H    0.117032
    21  H    0.112492
    22  O   -0.659234
    23  H    0.303257
    24  H    0.096340
    25  O   -0.680085
    26  H    0.346073
 Sum of Mulliken charges =   0.00000
 Mulliken charges with hydrogens summed into heavy atoms:
               1
     1  C   -0.068322
     2  C   -0.063972
     3  C   -0.045548
     4  C   -0.026170
     5  C    0.474401
     6  C    0.031532
    11  C    0.503694
    12  C    0.007927
    13  C   -0.052128
    14  C   -0.021710
    15  C   -0.043702
    16  C   -0.006014
    22  O   -0.355977
    25  O   -0.334013
 Electronic spatial extent (au):  <R**2>=           4876.9026
 Charge=              0.0000 electrons
 Dipole moment (field-independent basis, Debye):
    X=             -2.9361    Y=             -0.8079    Z=              1.7061  Tot=              3.4906
 Quadrupole moment (field-independent basis, Debye-Ang):
   XX=            -74.4276   YY=            -78.6450   ZZ=            -84.6572
   XY=              4.7560   XZ=             -0.6021   YZ=             -4.1820
 Traceless Quadrupole moment (field-independent basis, Debye-Ang):
   XX=              4.8157   YY=              0.5983   ZZ=             -5.4139
   XY=              4.7560   XZ=             -0.6021   YZ=             -4.1820
 Octapole moment (field-independent basis, Debye-Ang**2):
  XXX=            -34.9618  YYY=            -18.7061  ZZZ=              3.8241  XYY=            -30.8267
  XXY=              2.5797  XXZ=             -6.6616  XZZ=             15.4651  YZZ=             -2.1041
  YYZ=              4.9944  XYZ=             19.9068
 Hexadecapole moment (field-independent basis, Debye-Ang**3):
 XXXX=          -5516.6253 YYYY=           -414.1524 ZZZZ=           -414.3252 XXXY=             75.8043
 XXXZ=            -48.5609 YYYX=              4.0127 YYYZ=            -32.7781 ZZZX=            -10.5206
 ZZZY=              8.8666 XXYY=          -1072.8314 XXZZ=          -1086.1898 YYZZ=           -141.2797
 XXYZ=            -15.0918 YYXZ=              2.0982 ZZXY=             14.1316
 N-N= 7.634987842141D+02 E-N=-2.959356617170D+03  KE= 6.121946350162D+02
 No NMR shielding tensors so no spin-rotation constants.
 Leave Link  601 at Fri Jan  4 11:09:08 2019, MaxMem=   268435456 cpu:               2.5 elap:               0.4
 (Enter /home/apps/g16avx/g16/l701.exe)
 ... and contract with generalized density number  0.
 Compute integral first derivatives.
 R6Disp: Adding Grimme-D3 dispersion energy 1st derivatives to the gradient.
 D1PCM: PCM CHGder 1st derivatives, ID1Alg=3 FixD1E=F DoIter=F DoCFld=F I1PDM=0.
 GePol: Maximum number of non-zero 1st derivatives   =     197
 Leave Link  701 at Fri Jan  4 11:09:13 2019, MaxMem=   268435456 cpu:              33.4 elap:               4.3
 (Enter /home/apps/g16avx/g16/l702.exe)
 L702 exits ... SP integral derivatives will be done elsewhere.
 Leave Link  702 at Fri Jan  4 11:09:14 2019, MaxMem=   268435456 cpu:               0.5 elap:               0.1
 (Enter /home/apps/g16avx/g16/l703.exe)
 Integral derivatives from FoFJK, PRISM(SPDF).
 Compute integral first derivatives, UseDBF=F ICtDFT=           0.
 Calling FoFJK, ICntrl=      2127 FMM=F ISym2X=0 I1Cent= 0 IOpClX= 0 NMat=1 NMatS=1 NMatT=0.
 FoFJK:  IHMeth= 1 ICntrl=    2127 DoSepK=F KAlg= 0 I1Cent=           0 FoldK=F
 IRaf=         0 NMat=       1 IRICut=       1 DoRegI=T DoRafI=F ISym2E= 0 IDoP0=0 IntGTp=1.
 FoFCou: FMM=F IPFlag=           0 FMFlag=      100000 FMFlg1=         800
         NFxFlg=           0 DoJE=F BraDBF=F KetDBF=F FulRan=T
         wScrn=  0.000000 ICntrl=      2127 IOpCl=  0 I1Cent=           0 NGrid=           0
         NMat0=    1 NMatS0=      1 NMatT0=    0 NMatD0=    1 NMtDS0=    0 NMtDT0=    0
 Symmetry not used in FoFCou.
 Leave Link  703 at Fri Jan  4 11:09:45 2019, MaxMem=   268435456 cpu:             248.5 elap:              31.1
 (Enter /home/apps/g16avx/g16/l716.exe)
 Dipole        =-1.15515294D+00-3.17845226D-01 6.71222242D-01
 ***** Axes restored to original set *****
 -------------------------------------------------------------------
 Center     Atomic                   Forces (Hartrees/Bohr)
 Number     Number              X              Y              Z
 -------------------------------------------------------------------
      1        6          -0.002362150    0.000200394    0.000995575
      2        6          -0.001976754    0.000705505   -0.000567285
      3        6           0.000318879    0.000719094   -0.002199134
      4        6           0.002897054   -0.000504359   -0.000342781
      5        6          -0.001755339    0.000348770    0.000407496
      6        6           0.001799811   -0.000987397    0.001539184
      7        1          -0.000145593   -0.000001428    0.000104820
      8        1          -0.000218948    0.000084379   -0.000082973
      9        1           0.000030824    0.000031004   -0.000094438
     10        1          -0.000239428   -0.000135135    0.000535537
     11        6          -0.001736352    0.000669248    0.000141736
     12        6          -0.000609454   -0.002368715   -0.000975985
     13        6           0.001514300   -0.001042893   -0.000385441
     14        6           0.001661043    0.001252851    0.000571084
     15        6           0.000155502    0.002131461    0.000828156
     16        6          -0.002183259   -0.000570127   -0.000197710
     17        1          -0.000073049    0.000071688    0.000008379
     18        1           0.000216133   -0.000108529   -0.000038032
     19        1           0.000278717    0.000200326    0.000090790
     20        1           0.000022088    0.000283944    0.000126402
     21        1          -0.000649799    0.000107197    0.000058463
     22        8           0.001652672   -0.004024546   -0.000964920
     23        1          -0.002715422    0.003627914    0.001313404
     24        1           0.000581490   -0.000161336    0.000080217
     25        8           0.004200764    0.000519486   -0.003768339
     26        1          -0.000663730   -0.001048795    0.002815795
 -------------------------------------------------------------------
 Cartesian Forces:  Max     0.004200764 RMS     0.001385688
 Leave Link  716 at Fri Jan  4 11:09:46 2019, MaxMem=   268435456 cpu:               0.3 elap:               0.1
 (Enter /home/apps/g16avx/g16/l103.exe)

 GradGradGradGradGradGradGradGradGradGradGradGradGradGradGradGradGradGrad
 Berny optimization.
 FormGI is forming the generalized inverse of G from B-inverse, IUseBI=4.
 Internal  Forces:  Max     0.004559749 RMS     0.001060748
 Search for a local minimum.
 Step number   1 out of a maximum of  135
 All quantities printed in internal units (Hartrees-Bohrs-Radians)
 RMS Force = .10607D-02 SwitMx=.10000D-02 MixMth= 1
 Mixed Optimization -- RFO/linear search
 Second derivative matrix not updated -- first step.
 ITU=  0
     Eigenvalues ---    0.00230   0.01257   0.01336   0.01953   0.02074
     Eigenvalues ---    0.02081   0.02098   0.02105   0.02123   0.02129
     Eigenvalues ---    0.02133   0.02137   0.02138   0.02141   0.02142
     Eigenvalues ---    0.02144   0.02146   0.02147   0.02149   0.02152
     Eigenvalues ---    0.02159   0.02160   0.02195   0.02527   0.04733
     Eigenvalues ---    0.14918   0.16000   0.16000   0.16000   0.16000
     Eigenvalues ---    0.16000   0.16000   0.16000   0.16000   0.16000
     Eigenvalues ---    0.16000   0.16000   0.16000   0.22000   0.22000
     Eigenvalues ---    0.22000   0.22000   0.23483   0.23492   0.25000
     Eigenvalues ---    0.25000   0.34966   0.35113   0.35122   0.35133
     Eigenvalues ---    0.35217   0.35219   0.35258   0.35300   0.35301
     Eigenvalues ---    0.35337   0.41723   0.41937   0.42041   0.42153
     Eigenvalues ---    0.45548   0.45759   0.46122   0.46235   0.46267
     Eigenvalues ---    0.46372   0.46572   0.46678   0.49058   0.52024
     Eigenvalues ---    0.52549   0.53309
 RFO step:  Lambda=-1.10807928D-03 EMin= 2.30000000D-03
 Linear search not attempted -- first point.
[...]
 ,-0.00000615,0.00000153,0.00000155,-0.00000640,0.00000431,-0.00000020,
 0.00000041,0.00000089,-0.00000452,0.00000050,-0.00000007,0.00000302,-0
 .00045860,0.00128641,0.00039793,0.00052288,0.00199472,0.00103210,0.009
 90010,0.00837644,0.00196934,-0.19269528,-0.13854467,-0.03056170,-0.015
 39404,-0.02282629,-0.00566023,-0.00438457,0.00244960,0.00150315,0.0003
 4252,0.00047093,0.00014274,0.00068483,-0.00026237,-0.00040240,0.201418
 46,-0.00000238,-0.00000020,-0.00000043,-0.00000511,0.00000080,0.000001
 80,0.00000285,-0.00000643,0.00000589,0.00000086,0.00000327,-0.00001514
 ,0.00002400,-0.00002564,0.00001740,-0.00000723,0.00000720,-0.00000184,
 -0.00000213,0.00000167,0.00000104,-0.00000114,0.00000189,0.00000023,0.
 00000186,0.00000032,0.00000026,0.00000012,-0.00000079,0.00000127,0.001
 16183,-0.00030416,-0.00008411,0.00271004,-0.00308888,-0.00314305,-0.02
 114930,-0.01506761,-0.00367373,-0.13847656,-0.19775339,-0.03974585,0.0
 0667941,0.00836795,0.00144416,0.00170446,0.00128062,-0.00171782,-0.001
 06094,-0.00083902,-0.00029916,0.00036127,0.00038557,0.00129786,0.14811
 622,0.20638245,0.00000659,-0.00000834,0.00000292,-0.00000020,0.0000048
 3,-0.00000754,-0.00000295,0.00000253,0.00000381,0.00000204,0.00001507,
 -0.00000406,0.00003581,-0.00003344,0.00001533,-0.00001393,0.00000292,0
 .00000174,0.00000144,0.00000073,0.00000055,-0.00000120,0.00000028,0.00
 000008,-0.00000276,0.00000038,-0.00000407,0.00000238,0.00000150,-0.000
 00150,0.00035677,-0.00009817,-0.00034665,0.00124722,-0.00307786,0.0057
 2855,-0.00690280,-0.00571659,0.00079778,-0.03055900,-0.03974938,-0.043
 35550,0.00323849,0.00349334,0.00287103,0.00127732,-0.00177507,0.005952
 33,-0.00031553,-0.00040000,0.00029201,-0.00021184,0.00133852,-0.003599
 38,0.03221357,0.04436031,0.03565095,-0.00000272,0.00000466,0.00000958,
 -0.00000580,0.00001576,-0.00000463,0.00000094,0.00001887,-0.00000276,0
 .00004003,0.00002362,-0.00001471,0.00004907,-0.00005452,0.00003672,-0.
 00000847,0.00001396,0.00001192,-0.00000101,-0.00000288,-0.00000205,-0.
 00000271,-0.00000442,-0.00000084,-0.00000492,-0.00000614,-0.00000587,-
 0.00000279,-0.00000501,-0.00000192,-0.00263192,-0.00280689,-0.00014569
 ,-0.00091818,-0.00062000,-0.00018498,-0.00565750,0.00031498,0.00096561
 ,-0.00295884,0.02840524,0.00902366,-0.08228956,0.07383046,0.02542942,0
 .00982879,-0.02095727,-0.00673919,0.00011971,0.00007974,-0.00004092,-0
 .00032043,0.00143763,0.00045268,0.00076716,-0.00025038,-0.00040433,0.0
 8305526,-0.00001093,0.00001504,0.00000162,-0.00002021,0.00001845,0.000
 00926,0.00001109,-0.00000932,0.00001320,0.00001070,0.00001708,-0.00005
 115,0.00009764,-0.00009229,0.00005212,-0.00000692,0.00002121,0.0000053
 1,-0.00000653,-0.00000058,-0.00000123,-0.00000587,-0.00000085,-0.00000
 026,-0.00000316,-0.00000384,-0.00000602,-0.00000686,-0.00000882,0.0000
 0144,-0.00334832,0.00060641,-0.00191774,-0.00055046,0.00028513,0.00042
 127,0.00104705,0.00207780,-0.00150746,-0.00062465,-0.00129490,-0.00143
 533,0.07342825,-0.29136592,-0.08173560,0.00791499,-0.01536279,-0.00623
 030,0.00006203,-0.00014123,0.00019340,-0.00009812,-0.00019369,-0.00006
 542,0.00038237,0.00028878,0.00123723,-0.07826472,0.30626861,0.00000242
 ,-0.00000713,0.00000466,-0.00001055,0.00002136,-0.00000031,0.00000965,
 -0.00000385,0.00001491,-0.00000703,0.00000933,-0.00003463,0.00004959,-
 0.00005676,0.00004244,-0.00001574,0.00000417,-0.00000797,0.00000132,0.
 00000024,-0.00000080,-0.00000578,-0.00000037,-0.00000049,-0.00001104,-
 0.00000555,-0.00001632,0.00000600,0.00000491,-0.00000324,-0.00028975,-
 0.00191960,0.00713149,-0.00016096,0.00043146,-0.00084732,0.00117958,-0
 .00144326,0.00628871,0.00025192,-0.00345442,0.00254939,0.02534991,-0.0
 8179311,-0.06376932,0.00191071,-0.00422250,0.00210465,-0.00004276,0.00
 019138,-0.00074042,-0.00000347,-0.00017404,-0.00000674,-0.00020717,0.0
 0127636,-0.00349742,-0.02763548,0.09008585,0.05478206,0.00009878,-0.00
 017036,0.00021505,0.00024344,-0.00001646,-0.00027460,-0.00048241,0.000
 30118,-0.00005452,-0.00015509,-0.00021914,-0.00053555,-0.00009351,-0.0
 0090148,0.00046016,-0.00011704,0.00028316,0.00009170,0.00000925,-0.000
 01194,-0.00000568,0.00001688,-0.00000368,0.00000454,0.00001754,-0.0000
 2105,0.00003127,0.00001327,-0.00000583,-0.00002778,-0.00533421,-0.0011
 3239,0.00030617,0.00121696,0.00107775,0.00059836,0.00060196,-0.0001942
 0,-0.00017072,-0.00021987,-0.00358077,-0.00059356,-0.01431996,0.005822
 99,0.00291586,-0.32745283,0.05645143,0.03752728,-0.00013265,-0.0000756
 1,-0.00000008,-0.00006258,0.00005690,-0.00003022,-0.00071950,0.0003506
 4,0.00017801,0.00074315,-0.00003455,-0.00033529,0.34622935,0.00006086,
 -0.00005920,0.00004192,0.00017383,-0.00015445,-0.00008568,-0.00008056,
 0.00018565,-0.00003561,-0.00011694,-0.00024364,0.00028249,-0.00115441,
 0.00058794,-0.00048110,0.00005012,-0.00004081,-0.00001608,0.00002753,-
 0.00000599,0.00000039,0.00002791,-0.00001515,-0.00000085,0.00002636,-0
 .00000193,0.00005260,0.00000290,0.00000719,-0.00001147,0.02869548,-0.0
 0090473,-0.00357991,0.00044350,-0.00461669,-0.00305996,-0.00059636,-0.
 00117029,-0.00001483,-0.00301510,-0.00235850,-0.00267682,-0.02248363,0
 .00921224,0.00362425,0.05436015,-0.06883571,-0.01420993,0.00139927,-0.
 00020535,-0.00019622,0.00005713,0.00005693,0.00026138,-0.00114028,0.00
 028738,0.00006493,0.00040308,0.00038363,0.00137305,-0.05753300,0.06731
 197,0.00016974,-0.00017708,0.00010176,0.00006831,0.00001437,-0.0002158
 0,-0.00016019,0.00026219,-0.00009716,-0.00001442,0.00023294,0.00012872
 ,0.00078954,-0.00058818,0.00063075,-0.00023678,0.00005261,-0.00005071,
 0.00001412,0.00000839,-0.00000615,0.00002034,-0.00001572,-0.00001061,-
 0.00002542,0.00001134,-0.00002121,0.00004464,0.00001596,-0.00003523,0.
 00936524,-0.00142082,0.00326447,0.00042781,-0.00311752,0.00450794,-0.0
 0028948,-0.00005927,-0.00100088,-0.00038573,-0.00260837,0.00646802,-0.
 00555261,0.00161010,0.00325550,0.03668995,-0.01437707,-0.04084360,0.00
 044967,-0.00009988,0.00006323,-0.00003145,0.00025901,-0.00073678,-0.00
 025992,-0.00003978,0.00034927,-0.00023291,0.00140916,-0.00382364,-0.03
 970716,0.01688857,0.03186201,-0.00001963,-0.00010922,0.00045033,-0.000
 47560,0.00050559,-0.00037813,-0.00009932,-0.00010900,0.00076201,0.0005
 5845,0.00104099,-0.00263838,0.00365155,-0.00464311,0.00429119,-0.00139
 851,0.00125350,-0.00049643,-0.00019511,0.00010104,-0.00000245,-0.00016
 661,0.00007538,-0.00000554,-0.00006268,0.00003944,-0.00018053,0.000059
 77,-0.00012471,-0.00000623,-0.19676966,-0.05384953,-0.00497340,-0.0434
 0563,-0.04439931,-0.00984094,-0.00141473,0.00988743,0.00344991,-0.0003
 5196,-0.00562408,-0.00171568,-0.00382825,0.00342760,0.00163399,0.01172
 934,-0.00266449,-0.00119406,0.00342833,0.00010273,-0.00038506,-0.00162
 620,-0.00167566,-0.00038849,0.00008325,-0.00036252,-0.00017379,0.00040
 753,0.00016732,0.00002828,0.00086180,0.00018053,-0.00022424,0.37068952
 ,0.00002491,-0.00010380,0.00016841,-0.00013792,0.00009218,-0.00010621,
 0.00018971,0.00009659,-0.00005411,0.00035931,0.00061875,0.00027438,0.0
 0118238,-0.00164881,0.00158840,-0.00059738,0.00034632,-0.00018918,-0.0
 0005043,0.00004280,-0.00000178,-0.00003314,-0.00000554,-0.00002980,-0.
 00003568,0.00000144,-0.00006157,0.00001942,-0.00005285,-0.00002607,-0.
 10380296,-0.17325360,-0.03440513,-0.00503891,0.00142620,-0.00157498,0.
 00107748,-0.00223591,-0.00283599,-0.00593007,-0.00013991,0.00073160,0.
 00971492,0.00021006,-0.00207707,-0.04016124,-0.04593992,-0.01307209,0.
 00114677,0.00266037,0.00177052,-0.00019101,-0.00003120,-0.00001582,-0.
 00031786,0.00001810,0.00027135,-0.00129278,-0.00143057,-0.00039099,-0.
 00028262,0.00188294,0.00152998,-0.05177714,0.61310537,-0.00014268,0.00
 017672,-0.00034427,0.00001447,-0.00009178,0.00022815,-0.00022541,-0.00
 003699,0.00036167,0.00070679,-0.00023331,-0.00022140,-0.00201763,0.002
 89008,-0.00288937,0.00092210,-0.00085410,0.00041942,0.00005595,-0.0000
 4434,0.00003259,-0.00003087,0.00000267,0.00004388,0.00006384,-0.000081
 16,0.00004745,-0.00011074,0.00004725,0.00007135,-0.01958321,-0.0379682
 4,-0.04962045,0.00245162,0.00177632,0.00819600,0.00105869,-0.00363589,
 0.00618924,-0.00179274,0.00075674,-0.00085991,0.00345865,-0.00154090,0
 .00421563,-0.01224295,-0.01547921,0.00263627,-0.00017024,0.00191584,-0
 .00321245,0.00011485,0.00011985,0.00011046,-0.00016533,0.00031311,-0.0
 0076893,-0.00036949,-0.00044495,0.00003843,-0.00037096,0.00156697,-0.0
 0281168,-0.04328391,0.17410001,0.08323543,-0.00001361,0.00000723,0.000
 01692,-0.00003920,0.00006263,-0.00002178,-0.00007138,-0.00003655,0.000
 09074,-0.00004273,-0.00003033,-0.00042788,0.00039759,-0.00030731,0.000
 20337,-0.00006379,0.00008648,-0.00001664,-0.00001197,0.00000498,-0.000
 00193,-0.00001156,0.00001071,0.00000655,-0.00000616,0.00001426,-0.0000
 1439,0.00000762,0.00000198,0.00000793,0.01248712,-0.03170160,-0.010330
 23,0.00165067,-0.00328848,-0.00100507,-0.00067834,-0.00000464,0.000029
 21,-0.00022100,0.00032180,0.00011692,0.00117842,-0.00066360,-0.0001589
 4,-0.00442891,-0.00372660,-0.00070476,-0.00112757,0.00117674,0.0008521
 0,0.00007237,0.00003153,0.00000431,-0.00005306,0.00017268,0.00004135,-
 0.00024776,-0.00020970,-0.00005944,0.00007811,-0.00010477,-0.00008745,
 -0.13147925,0.19305130,0.06565929,0.12247312,-0.00002155,0.00001116,0.
 00000810,-0.00004496,0.00002386,0.00000826,0.00000371,-0.00004786,0.00
 003402,-0.00007132,0.00002352,-0.00014732,0.00027032,-0.00025610,0.000
 19363,-0.00007948,0.00005071,-0.00001404,-0.00001269,0.00000988,0.0000
 0399,-0.00000961,0.00001352,0.00000215,0.00001020,0.00000768,-0.000002
 55,0.00000290,0.00000809,0.00001139,0.01171803,-0.02921915,-0.00817013
 ,0.00275221,0.00507509,0.00140574,0.00035682,-0.00111144,-0.00024162,-
 0.00000071,0.00080403,0.00022198,0.00137364,-0.00065568,-0.00082077,-0
 .00488099,-0.00018959,-0.00017527,-0.00147994,0.00039611,0.00050110,0.
 00026216,0.00020390,0.00004890,-0.00002108,0.00005051,0.00005291,-0.00
 030214,-0.00015559,0.00002920,0.00002419,0.00025945,0.00026604,0.14601
 700,-0.39131132,-0.12033285,-0.15710175,0.41547208,0.00001081,-0.00003
 356,0.00000251,-0.00003032,0.00004002,-0.00003219,-0.00002559,-0.00003
 135,0.00003443,-0.00027299,0.00006268,-0.00014824,0.00027647,-0.000122
 60,0.00009285,-0.00004796,0.00001138,0.00000110,0.00000278,0.00000462,
 0.00000023,-0.00000162,0.00001161,0.00000270,-0.00001340,0.00002328,-0
 .00001746,0.00001723,0.00000269,-0.00000391,0.00194063,-0.00656222,-0.
 00508915,0.00084334,0.00178911,0.00014715,0.00007105,-0.00013240,-0.00
 067603,0.00007980,0.00022574,0.00012584,0.00040214,-0.00068933,0.00138
 942,-0.00107571,-0.00027750,0.00175138,0.00012213,0.00029300,0.0001289
 5,0.00008195,0.00006499,0.00000515,-0.00000435,0.00003510,-0.00006390,
 -0.00009223,0.00003042,-0.00017380,-0.00004223,0.00025674,-0.00048045,
 0.05142482,-0.12158535,-0.04141094,-0.05407615,0.12772171,0.04466779,0
 .00009159,-0.00041069,-0.00055866,0.00102913,0.00481389,-0.00173332,-0
 .01175708,0.00416328,0.01184650,-0.22386005,0.07667003,0.12552791,-0.0
 0032740,0.00307428,-0.00034266,0.00261267,0.00150898,0.00103323,-0.000
 27885,-0.00035067,-0.00008112,-0.00051150,0.00038299,0.00068223,-0.000
 59428,-0.00195231,-0.00107582,-0.00006511,0.00002177,-0.00007264,-0.00
 065620,-0.00023071,-0.00021690,0.00004496,-0.00003024,0.00006180,0.000
 01321,0.00004306,0.00001015,0.00008395,-0.00002403,-0.00000342,-0.0001
 2137,-0.00002295,0.00004631,0.00023793,-0.00009036,-0.00017121,0.00000
 333,-0.00000558,0.00000319,0.00000734,0.00000678,-0.00001025,0.0000042
 8,0.00000603,-0.00000329,0.00000459,0.00001622,-0.00000351,-0.00050997
 ,-0.00017659,-0.00025216,-0.00133115,0.00066312,-0.00026630,0.00000788
 ,0.00019645,0.00015588,0.23514817,-0.00024859,-0.00085882,0.00033899,0
 .00455486,0.00231474,0.00394889,0.01410153,-0.00261550,-0.01196739,0.0
 7720198,-0.06855186,-0.03957077,-0.00777346,0.00652809,0.00653108,0.00
 178727,0.00284379,0.00357768,-0.00036033,-0.00049611,-0.00030638,0.000
 91139,0.00007762,-0.00042727,-0.00215585,-0.00222575,-0.00117343,-0.00
 052150,0.00014434,0.00030638,0.00049292,0.00081948,0.00007553,-0.00019
 249,-0.00012766,-0.00006022,0.00006794,0.00006768,0.00004042,0.0000263
 5,-0.00004283,-0.00004699,0.00006093,-0.00017078,-0.00000175,-0.000161
 04,0.00005133,0.00023839,0.00002938,-0.00002001,-0.00001921,-0.0000002
 4,-0.00000977,0.00000219,0.00002662,-0.00000228,-0.00000599,-0.0000173
 2,-0.00000288,-0.00000817,-0.00015425,-0.00015183,-0.00039511,0.000190
 79,-0.00094820,-0.00010856,0.00017233,-0.00009952,0.00006851,-0.085941
 70,0.06480602,-0.00094637,0.00058876,-0.00076608,-0.00108187,0.0035110
 3,0.00055224,-0.01151630,0.00391904,0.01098293,0.12341777,-0.03854293,
 -0.13925212,0.02473569,-0.01060435,-0.01058967,0.00045962,0.00392641,-
 0.00427989,-0.00008050,-0.00031125,-0.00002952,-0.00053467,0.00038346,
 0.00041099,-0.00065559,-0.00145811,0.00023022,0.00120146,-0.00053875,-
 0.00064631,-0.00058623,-0.00057220,-0.00013502,0.00013664,0.00010596,-
 0.00003976,0.00006088,0.00000515,-0.00001356,0.00011771,0.00006692,-0.
 00001742,0.00005435,-0.00017443,-0.00003217,-0.00018615,0.00038585,0.0
 0025156,0.00000662,-0.00001860,0.00000419,0.00002858,0.00000458,0.0000
 0794,0.00003878,0.00000507,0.00000291,0.00000384,0.00002562,0.00001647
 ,-0.00011691,-0.00036581,-0.00034373,0.00041013,-0.00018458,0.00018382
 ,0.00026839,0.00007679,0.00019717,-0.13379974,0.04053809,0.14271965,0.
 00234260,-0.00247716,0.00918387,-0.00147469,0.00276104,-0.00576085,0.0
 0035021,0.00301501,0.00341141,0.00253693,0.00857674,-0.00771206,-0.170
 01263,0.10939602,-0.05878680,-0.04098282,0.03970359,-0.01679427,-0.001
 35764,0.00119157,-0.00050014,-0.00024504,-0.00016307,-0.00044838,-0.00
 013079,0.00014305,-0.00034195,0.00084136,-0.00219880,-0.00123417,0.004
 39110,0.00629772,0.00206032,-0.00139935,-0.00120498,-0.00037172,-0.000
 07227,0.00033431,-0.00002891,-0.00047895,-0.00037267,-0.00017535,0.000
 18306,0.00048619,0.00032545,0.00039146,-0.00182956,0.00022097,0.000163
 77,-0.00002465,0.00001615,-0.00018175,-0.00008187,-0.00000811,-0.00011
 522,-0.00006348,-0.00002221,-0.00005781,-0.00016781,-0.00006819,-0.000
 73649,0.00097666,-0.00066185,-0.01318048,-0.00062338,0.00820198,-0.001
 63500,-0.00178790,0.00052566,0.00025768,-0.00237525,-0.00073331,0.5062
 2892,-0.00015124,0.00557847,-0.00114276,0.00228779,-0.00363396,0.00224
 029,0.00052581,0.00601534,0.00218228,0.01931834,-0.01154850,0.01809153
 ,0.09103471,-0.14167944,0.08340771,0.02632040,-0.01232465,0.00559733,0
 .00056602,-0.00038626,0.00008927,-0.00022782,-0.00064791,-0.00014061,0
 .00054758,-0.00068664,0.00050113,-0.00213793,-0.00148298,-0.00104406,-
 0.00207380,-0.00352719,-0.00139122,0.00083835,0.00068535,0.00009481,-0
 .00010397,-0.00027318,0.00000295,0.00009242,0.00023983,0.00003409,-0.0
 0013887,0.00010558,0.00001223,0.00065834,0.00018255,-0.00004100,-0.000
 10404,0.00005578,0.00002324,0.00006243,0.00004097,0.00002399,-0.000002
 07,0.00003100,0.00001898,0.00006503,0.00008411,0.00005968,-0.00000648,
 -0.00001493,0.00018878,0.00536355,0.00511223,-0.00228296,-0.00053627,0
 .00003737,0.00047491,-0.00226391,-0.00136915,-0.00197899,-0.20567071,0
 .19096944,0.00271784,0.00305890,-0.00717360,-0.00483914,0.00116912,0.0
 0385815,0.01053564,-0.00217665,-0.00371140,-0.03516781,0.03706860,-0.0
 2053424,-0.02538404,0.06330960,-0.14046102,0.01437510,-0.01482534,0.01
 901748,0.00067938,-0.00065673,0.00050915,-0.00044719,-0.00018559,0.000
 17865,-0.00131599,0.00117382,-0.00082571,-0.00128413,-0.00098622,0.000
 98814,-0.00025048,-0.00206738,-0.00117034,0.00053862,0.00056501,0.0001
 0109,0.00002093,-0.00020529,0.00000735,-0.00002098,0.00012544,0.000017
 14,0.00003182,0.00011849,0.00017327,0.00007248,-0.00013908,0.00036825,
 -0.00007883,0.00002973,-0.00005537,0.00003600,0.00004076,0.00000483,-0
 .00001921,0.00001977,-0.00002590,0.00000663,0.00003644,-0.00003100,-0.
 00020588,0.00034192,-0.00050905,0.00565332,-0.00078792,-0.00003687,0.0
 0093384,0.00082113,-0.00058281,-0.00096699,-0.00205238,0.00224416,-0.1
 5588928,-0.07225090,0.35413969,-0.00002583,0.00081981,0.00081594,0.000
 90094,-0.00071878,0.00021412,-0.00114622,0.00024553,0.00066444,0.00350
 782,-0.00373274,0.00216295,-0.02955628,0.01111916,0.01066804,0.0019892
 0,0.00075245,-0.00238014,0.00004771,-0.00006014,-0.00017165,0.00008427
 ,-0.00012189,-0.00000076,0.00027509,-0.00029669,0.00033470,-0.00015711
 ,-0.00021517,-0.00015553,-0.00861721,-0.01012553,-0.00241302,0.0022264
 3,0.00161863,0.00034126,-0.00002869,-0.00050063,0.00008759,0.00060744,
 0.00055957,0.00013252,-0.00045648,-0.00015046,-0.00014701,0.00059232,0
 .00143691,0.00043082,-0.00020440,0.00005703,-0.00005938,0.00022554,0.0
 0011514,0.00001643,0.00007201,0.00008890,0.00001286,0.00009421,0.00022
 114,0.00006677,0.00020563,-0.00048368,0.00008242,0.00433522,0.00284318
 ,-0.00193577,0.00177839,0.00282649,-0.00027213,0.00046627,0.00027770,-
 0.00070279,-0.28562618,0.06573631,0.19026833,0.30840991,0.00139277,0.0
 0098592,-0.00059655,-0.00050853,0.00034859,0.00005020,0.00015508,-0.00
 071695,-0.00022089,-0.00094784,0.00072638,-0.00163031,0.02613640,-0.01
 082953,-0.01643569,0.00242791,-0.00082968,0.00373500,0.00005810,-0.000
 30875,0.00010115,-0.00010951,-0.00000657,0.00001904,-0.00010252,0.0001
 2193,-0.00012359,-0.00027654,-0.00031324,-0.00015702,-0.00034161,0.002
 53893,0.00232790,-0.00069976,-0.00064482,-0.00007642,0.00015907,0.0003
 3816,-0.00002654,0.00015192,-0.00015141,0.00001684,0.00020142,-0.00044
 358,-0.00026559,-0.00118114,0.00049763,0.00000350,0.00010723,-0.000060
 19,0.00000163,-0.00001732,-0.00003749,-0.00002659,0.00008498,-0.000019
 12,-0.00000099,-0.00002857,-0.00000299,-0.00000724,-0.00002444,-0.0013
 9610,0.00014935,-0.00301410,-0.00851172,-0.00053033,0.00259695,0.00059
 930,-0.00168220,-0.00006713,0.00003986,0.00120727,0.04615939,-0.031563
 21,-0.01154526,-0.07231222,0.04963866,0.00039298,0.00002882,0.00156509
 ,-0.00016672,0.00039914,-0.00073593,0.00012038,-0.00005361,-0.00062729
 ,-0.00337463,0.00192063,0.00052502,-0.01713599,0.00035603,0.01564921,-
 0.00386933,0.00441385,-0.00141596,-0.00030623,0.00014648,-0.00011312,0
 .00005910,-0.00003817,-0.00009695,-0.00004788,0.00006955,-0.00008686,-
 0.00020128,-0.00020609,0.00006774,0.00264514,0.00660912,0.00283147,-0.
 00170410,-0.00152155,-0.00028654,-0.00009121,0.00043402,0.00001628,-0.
 00023561,-0.00038650,-0.00005914,0.00012742,-0.00007372,-0.00014488,-0
 .00045350,-0.00062289,-0.00040945,0.00014780,-0.00004637,0.00005112,-0
 .00015386,-0.00010370,-0.00002282,-0.00001177,-0.00005871,0.00000561,-
 0.00006206,-0.00012689,-0.00001977,0.00014275,-0.00002094,0.00035500,-
 0.00221672,-0.00303601,-0.00383353,-0.00132623,-0.00150252,0.00013220,
 0.00019081,0.00047745,-0.00165901,0.22559176,-0.03277072,-0.20649003,-
 0.19806102,0.02571331,0.19480253\\0.00000099,-0.00000234,0.00000081,-0
 .00000069,-0.00000393,0.00000270,-0.00000002,-0.00000585,0.00000213,-0
 .00000281,0.00000086,0.00000063,0.00000405,-0.00000295,0.00000610,0.00
 000041,0.00000012,0.00000112,0.00000048,-0.00000140,0.00000215,-0.0000
 0171,-0.00000488,0.00000054,-0.00000270,-0.00000514,0.00000048,0.00000
 221,0.00000128,0.00000301,0.00000288,0.00001297,-0.00000098,0.00000565
 ,0.00000243,0.00000170,-0.00000204,-0.00000350,-0.00000495,-0.00000770
 ,0.00000698,-0.00000280,0.00000952,0.00000398,-0.00000390,-0.00000324,
 -0.00000801,-0.00000667,0.00000079,0.00000200,0.00000071,-0.00000004,0
 .00000365,-0.00000317,-0.00000093,0.00000339,-0.00000650,-0.00000221,0
 .00000218,-0.00000547,0.00000036,0.00000182,-0.00000122,-0.00001025,-0
 .00000077,0.00001202,0.00000367,-0.00000026,-0.00000171,-0.00000054,-0
 .00000387,0.00000164,-0.00000346,0.00000350,0.00000510,0.00000734,-0.0
 0000229,-0.00000345\\\@


 ABSOLUTISM, OBSOLETISM -- IF IT WORKS, IT'S OUT OF DATE

                          -- STAFFORD BEER
 Job cpu time:       0 days  3 hours 34 minutes 14.9 seconds.
 Elapsed time:       0 days  0 hours 26 minutes 49.5 seconds.
 File lengths (MBytes):  RWF=    395 Int=      0 D2E=      0 Chk=     19 Scr=      2
 Normal termination of Gaussian 16 at Fri Jan  4 13:12:18 2019.
