 Entering Gaussian System, Link 0=g16
 Input=trimero_jaula_b3lypd3_augccpvtz_ccl4_of_pcm.com
 Output=trimero_jaula_b3lypd3_augccpvtz_ccl4_of_pcm.log
 Initial command:
 /home/apps/g16/g16/l1.exe "/scratch/gaussian/jpablo/Gau-24375.inp" -scrdir="/scratch/gaussian/jpablo/"
 Entering Link 1 = /home/apps/g16/g16/l1.exe PID=     24378.
  
 Copyright (c) 1988,1990,1992,1993,1995,1998,2003,2009,2016,
            Gaussian, Inc.  All Rights Reserved.
  
 This is part of the Gaussian(R) 16 program.  It is based on
 the Gaussian(R) 09 system (copyright 2009, Gaussian, Inc.),
 the Gaussian(R) 03 system (copyright 2003, Gaussian, Inc.),
 the Gaussian(R) 98 system (copyright 1998, Gaussian, Inc.),
 the Gaussian(R) 94 system (copyright 1995, Gaussian, Inc.),
 the Gaussian 92(TM) system (copyright 1992, Gaussian, Inc.),
 the Gaussian 90(TM) system (copyright 1990, Gaussian, Inc.),
 the Gaussian 88(TM) system (copyright 1988, Gaussian, Inc.),
 the Gaussian 86(TM) system (copyright 1986, Carnegie Mellon
 University), and the Gaussian 82(TM) system (copyright 1983,
 Carnegie Mellon University). Gaussian is a federally registered
 trademark of Gaussian, Inc.
  
 This software contains proprietary and confidential information,
 including trade secrets, belonging to Gaussian, Inc.
  
 This software is provided under written license and may be
 used, copied, transmitted, or stored only in accord with that
 written license.
  
 The following legend is applicable only to US Government
 contracts under FAR:
  
                    RESTRICTED RIGHTS LEGEND
  
 Use, reproduction and disclosure by the US Government is
 subject to restrictions as set forth in subparagraphs (a)
 and (c) of the Commercial Computer Software - Restricted
 Rights clause in FAR 52.227-19.
  
 Gaussian, Inc.
 340 Quinnipiac St., Bldg. 40, Wallingford CT 06492
  
  
 ---------------------------------------------------------------
 Warning -- This program may not be used in any manner that
 competes with the business of Gaussian, Inc. or will provide
 assistance to any competitor of Gaussian, Inc.  The licensee
 of this program is prohibited from giving any competitor of
 Gaussian, Inc. access to this program.  By using this program,
 the user acknowledges that Gaussian, Inc. is engaged in the
 business of creating and licensing software in the field of
 computational chemistry and represents and warrants to the
 licensee that it is not a competitor of Gaussian, Inc. and that
 it will not use this program in any manner prohibited above.
 ---------------------------------------------------------------
  

 Cite this work as:
 Gaussian 16, Revision A.03,
 M. J. Frisch, G. W. Trucks, H. B. Schlegel, G. E. Scuseria, 
 M. A. Robb, J. R. Cheeseman, G. Scalmani, V. Barone, 
 G. A. Petersson, H. Nakatsuji, X. Li, M. Caricato, A. V. Marenich, 
 J. Bloino, B. G. Janesko, R. Gomperts, B. Mennucci, H. P. Hratchian, 
 J. V. Ortiz, A. F. Izmaylov, J. L. Sonnenberg, D. Williams-Young, 
 F. Ding, F. Lipparini, F. Egidi, J. Goings, B. Peng, A. Petrone, 
 T. Henderson, D. Ranasinghe, V. G. Zakrzewski, J. Gao, N. Rega, 
 G. Zheng, W. Liang, M. Hada, M. Ehara, K. Toyota, R. Fukuda, 
 J. Hasegawa, M. Ishida, T. Nakajima, Y. Honda, O. Kitao, H. Nakai, 
 T. Vreven, K. Throssell, J. A. Montgomery, Jr., J. E. Peralta, 
 F. Ogliaro, M. J. Bearpark, J. J. Heyd, E. N. Brothers, K. N. Kudin, 
 V. N. Staroverov, T. A. Keith, R. Kobayashi, J. Normand, 
 K. Raghavachari, A. P. Rendell, J. C. Burant, S. S. Iyengar, 
 J. Tomasi, M. Cossi, J. M. Millam, M. Klene, C. Adamo, R. Cammi, 
 J. W. Ochterski, R. L. Martin, K. Morokuma, O. Farkas, 
 J. B. Foresman, and D. J. Fox, Gaussian, Inc., Wallingford CT, 2016.
 
 ******************************************
 Gaussian 16:  ES64L-G16RevA.03 25-Dec-2016
                11-Feb-2019 
 ******************************************
 %chk=trimero_jaula_b3lypd3_augccpvtz_ccl4_of_pcm.chk
 %mem=2GB
 %nprocshared=8
 Will use up to    8 processors via shared memory.
 ----------------------------------------------------------------------
 #p opt freq b3lyp/aug-cc-pvtz scrf=(solvent=ccl4,pcm) geom=connectivit
 y empiricaldispersion=gd3
 ----------------------------------------------------------------------
 1/18=20,19=15,26=3,38=1,57=2/1,3;
 2/9=110,12=2,17=6,18=5,40=1/2;
 3/5=16,6=1,7=10,11=2,25=1,30=1,70=2201,71=1,72=11,74=-5,124=31/1,2,3;
 4//1;
 5/5=2,38=5,53=11/2;
 6/7=2,8=2,9=2,10=2,28=1/1;
 7//1,2,3,16;
 1/18=20,19=15,26=3/3(2);
 2/9=110/2;
 99//99;
 2/9=110/2;
 3/5=16,6=1,7=10,11=2,25=1,30=1,70=2205,71=1,72=11,74=-5,124=31/1,2,3;
 4/5=5,16=3,69=1/1;
 5/5=2,38=5,53=11/2;
 7//1,2,3,16;
 1/18=20,19=15,26=3/3(-5);
 2/9=110/2;
 6/7=2,8=2,9=2,10=2,19=2,28=1/1;
 99/9=1/99;
 Leave Link    1 at Mon Feb 11 10:42:38 2019, MaxMem=   268435456 cpu:               1.1 elap:               0.2
 (Enter /home/apps/g16/g16/l101.exe)
 -------
 Título
 -------
 Symbolic Z-matrix:
 Charge =  0 Multiplicity = 1
 C                    -4.06236   1.02581  -0.51833 
 C                    -3.43245   1.70683  -1.566 
 C                    -2.10218   2.11106  -1.41901 
 C                    -1.39892   1.83912  -0.2421 
 C                    -2.04052   1.15548   0.79674 
 C                    -3.37267   0.74848   0.66366 
 H                    -5.0971    0.70818  -0.61879 
 H                    -3.97216   1.91995  -2.48443 
 H                    -1.59914   2.63819  -2.22553 
 H                    -3.84736   0.22254   1.48728 
 H                    -0.3603    2.14201  -0.13904 
 O                    -1.39918   0.82316   1.96553 
 H                    -0.51134   1.15215   1.97016 
 C                     1.1293   -4.08386  -0.51841 
 C                     0.22457  -3.87885  -1.56608 
 C                    -0.79065  -2.92892  -1.41909 
 C                    -0.90676  -2.18391  -0.24218 
 C                     0.00608  -2.39773   0.79666 
 C                     1.02463  -3.34791   0.66358 
 H                     1.92175  -4.82116  -0.61887 
 H                     0.30985  -4.45281  -2.48451 
 H                    -1.49867  -2.75684  -2.22561 
 H                     1.71745  -3.49603   1.4872 
 C                     2.0485    1.24746   0.79666 
 C                     2.31975   0.35001  -0.24218 
 C                     2.90689   0.82307  -1.41909 
 C                     3.22195   2.17724  -1.56608 
 C                     2.94712   3.06326  -0.51841 
 C                     2.36211   2.60464   0.66358 
 H                     2.06275  -0.70091  -0.13912 
 H                     3.11188   0.12386  -2.22561 
 H                     3.67637   2.53808  -2.48451 
 H                     3.18942   4.11819  -0.61887 
 H                     2.14397   3.27871   1.4872 
 O                     1.44004   0.8582    1.96546 
 H                     1.27599  -0.10475   1.97023 
 H                    -1.68839  -1.43589  -0.13912 
 O                    -0.02679  -1.67616   1.96546 
 H                    -0.77871  -1.05261   1.97023 
 
 Add virtual bond connecting atoms O35        and H13        Dist= 3.73D+00.
 Add virtual bond connecting atoms O38        and H36        Dist= 3.86D+00.
 Add virtual bond connecting atoms H39        and O12        Dist= 3.73D+00.
 ITRead=  0  0  0  0  0  0  0  0  0  0  0  0  0  0  0  0  0  0  0  0
 ITRead=  0  0  0  0  0  0  0  0  0  0  0  0  0  0  0  0  0  0  0
 MicOpt= -1 -1 -1 -1 -1 -1 -1 -1 -1 -1 -1 -1 -1 -1 -1 -1 -1 -1 -1 -1
 MicOpt= -1 -1 -1 -1 -1 -1 -1 -1 -1 -1 -1 -1 -1 -1 -1 -1 -1 -1 -1
 NAtoms=     39 NQM=       39 NQMF=       0 NMMI=      0 NMMIF=      0
                NMic=       0 NMicF=      0.
                    Isotopes and Nuclear Properties:
 (Nuclear quadrupole moments (NQMom) in fm**2, nuclear magnetic moments (NMagM)
  in nuclear magnetons)

  Atom         1           2           3           4           5           6           7           8           9          10
 IAtWgt=          12          12          12          12          12          12           1           1           1           1
 AtmWgt=  12.0000000  12.0000000  12.0000000  12.0000000  12.0000000  12.0000000   1.0078250   1.0078250   1.0078250   1.0078250
 NucSpn=           0           0           0           0           0           0           1           1           1           1
 AtZEff=  -0.0000000  -0.0000000  -0.0000000  -0.0000000  -0.0000000  -0.0000000  -0.0000000  -0.0000000  -0.0000000  -0.0000000
 NQMom=    0.0000000   0.0000000   0.0000000   0.0000000   0.0000000   0.0000000   0.0000000   0.0000000   0.0000000   0.0000000
 NMagM=    0.0000000   0.0000000   0.0000000   0.0000000   0.0000000   0.0000000   2.7928460   2.7928460   2.7928460   2.7928460
 AtZNuc=   6.0000000   6.0000000   6.0000000   6.0000000   6.0000000   6.0000000   1.0000000   1.0000000   1.0000000   1.0000000

  Atom        11          12          13          14          15          16          17          18          19          20
 IAtWgt=           1          16           1          12          12          12          12          12          12           1
 AtmWgt=   1.0078250  15.9949146   1.0078250  12.0000000  12.0000000  12.0000000  12.0000000  12.0000000  12.0000000   1.0078250
 NucSpn=           1           0           1           0           0           0           0           0           0           1
 AtZEff=  -0.0000000  -0.0000000  -0.0000000  -0.0000000  -0.0000000  -0.0000000  -0.0000000  -0.0000000  -0.0000000  -0.0000000
 NQMom=    0.0000000   0.0000000   0.0000000   0.0000000   0.0000000   0.0000000   0.0000000   0.0000000   0.0000000   0.0000000
 NMagM=    2.7928460   0.0000000   2.7928460   0.0000000   0.0000000   0.0000000   0.0000000   0.0000000   0.0000000   2.7928460
 AtZNuc=   1.0000000   8.0000000   1.0000000   6.0000000   6.0000000   6.0000000   6.0000000   6.0000000   6.0000000   1.0000000

  Atom        21          22          23          24          25          26          27          28          29          30
 IAtWgt=           1           1           1          12          12          12          12          12          12           1
 AtmWgt=   1.0078250   1.0078250   1.0078250  12.0000000  12.0000000  12.0000000  12.0000000  12.0000000  12.0000000   1.0078250
 NucSpn=           1           1           1           0           0           0           0           0           0           1
 AtZEff=  -0.0000000  -0.0000000  -0.0000000  -0.0000000  -0.0000000  -0.0000000  -0.0000000  -0.0000000  -0.0000000  -0.0000000
 NQMom=    0.0000000   0.0000000   0.0000000   0.0000000   0.0000000   0.0000000   0.0000000   0.0000000   0.0000000   0.0000000
 NMagM=    2.7928460   2.7928460   2.7928460   0.0000000   0.0000000   0.0000000   0.0000000   0.0000000   0.0000000   2.7928460
 AtZNuc=   1.0000000   1.0000000   1.0000000   6.0000000   6.0000000   6.0000000   6.0000000   6.0000000   6.0000000   1.0000000

  Atom        31          32          33          34          35          36          37          38          39
 IAtWgt=           1           1           1           1          16           1           1          16           1
 AtmWgt=   1.0078250   1.0078250   1.0078250   1.0078250  15.9949146   1.0078250   1.0078250  15.9949146   1.0078250
 NucSpn=           1           1           1           1           0           1           1           0           1
 AtZEff=  -0.0000000  -0.0000000  -0.0000000  -0.0000000  -0.0000000  -0.0000000  -0.0000000  -0.0000000  -0.0000000
 NQMom=    0.0000000   0.0000000   0.0000000   0.0000000   0.0000000   0.0000000   0.0000000   0.0000000   0.0000000
 NMagM=    2.7928460   2.7928460   2.7928460   2.7928460   0.0000000   2.7928460   2.7928460   0.0000000   2.7928460
 AtZNuc=   1.0000000   1.0000000   1.0000000   1.0000000   8.0000000   1.0000000   1.0000000   8.0000000   1.0000000
 Leave Link  101 at Mon Feb 11 10:42:41 2019, MaxMem=   268435456 cpu:               4.1 elap:               0.6
 (Enter /home/apps/g16/g16/l103.exe)

 GradGradGradGradGradGradGradGradGradGradGradGradGradGradGradGradGradGrad
 Berny optimization.
 Initialization pass.
                           ----------------------------
                           !    Initial Parameters    !
                           ! (Angstroms and Degrees)  !
 --------------------------                            --------------------------
 ! Name  Definition              Value          Derivative Info.                !
 --------------------------------------------------------------------------------
 ! R1    R(1,2)                  1.3993         estimate D2E/DX2                !
 ! R2    R(1,6)                  1.3963         estimate D2E/DX2                !
 ! R3    R(1,7)                  1.0871         estimate D2E/DX2                !
 ! R4    R(2,3)                  1.3981         estimate D2E/DX2                !
 ! R5    R(2,8)                  1.0864         estimate D2E/DX2                !
 ! R6    R(3,4)                  1.3977         estimate D2E/DX2                !
 ! R7    R(3,9)                  1.0869         estimate D2E/DX2                !
 ! R8    R(4,5)                  1.3994         estimate D2E/DX2                !
 ! R9    R(4,11)                 1.0868         estimate D2E/DX2                !
 ! R10   R(5,6)                  1.3993         estimate D2E/DX2                !
 ! R11   R(5,12)                 1.374          estimate D2E/DX2                !
 ! R12   R(6,10)                 1.0864         estimate D2E/DX2                !
 ! R13   R(12,13)                0.9468         estimate D2E/DX2                !
 ! R14   R(12,39)                1.9757         estimate D2E/DX2                !
 ! R15   R(13,35)                1.9734         estimate D2E/DX2                !
 ! R16   R(14,15)                1.3993         estimate D2E/DX2                !
 ! R17   R(14,19)                1.3963         estimate D2E/DX2                !
 ! R18   R(14,20)                1.0871         estimate D2E/DX2                !
 ! R19   R(15,16)                1.3981         estimate D2E/DX2                !
 ! R20   R(15,21)                1.0864         estimate D2E/DX2                !
 ! R21   R(16,17)                1.3977         estimate D2E/DX2                !
 ! R22   R(16,22)                1.0869         estimate D2E/DX2                !
 ! R23   R(17,18)                1.3994         estimate D2E/DX2                !
 ! R24   R(17,37)                1.0868         estimate D2E/DX2                !
 ! R25   R(18,19)                1.3993         estimate D2E/DX2                !
 ! R26   R(18,38)                1.374          estimate D2E/DX2                !
 ! R27   R(19,23)                1.0864         estimate D2E/DX2                !
 ! R28   R(24,25)                1.3994         estimate D2E/DX2                !
 ! R29   R(24,29)                1.3993         estimate D2E/DX2                !
 ! R30   R(24,35)                1.374          estimate D2E/DX2                !
 ! R31   R(25,26)                1.3977         estimate D2E/DX2                !
 ! R32   R(25,30)                1.0868         estimate D2E/DX2                !
 ! R33   R(26,27)                1.3981         estimate D2E/DX2                !
 ! R34   R(26,31)                1.0869         estimate D2E/DX2                !
 ! R35   R(27,28)                1.3993         estimate D2E/DX2                !
 ! R36   R(27,32)                1.0864         estimate D2E/DX2                !
 ! R37   R(28,29)                1.3963         estimate D2E/DX2                !
 ! R38   R(28,33)                1.0871         estimate D2E/DX2                !
 ! R39   R(29,34)                1.0864         estimate D2E/DX2                !
 ! R40   R(35,36)                0.9768         estimate D2E/DX2                !
 ! R41   R(36,38)                2.0412         estimate D2E/DX2                !
 ! R42   R(38,39)                0.9768         estimate D2E/DX2                !
 ! A1    A(2,1,6)              120.5365         estimate D2E/DX2                !
 ! A2    A(2,1,7)              120.099          estimate D2E/DX2                !
 ! A3    A(6,1,7)              119.3645         estimate D2E/DX2                !
 ! A4    A(1,2,3)              119.3608         estimate D2E/DX2                !
 ! A5    A(1,2,8)              120.3171         estimate D2E/DX2                !
 ! A6    A(3,2,8)              120.322          estimate D2E/DX2                !
 ! A7    A(2,3,4)              120.7311         estimate D2E/DX2                !
 ! A8    A(2,3,9)              120.1707         estimate D2E/DX2                !
 ! A9    A(4,3,9)              119.0973         estimate D2E/DX2                !
 ! A10   A(3,4,5)              119.3048         estimate D2E/DX2                !
 ! A11   A(3,4,11)             120.4288         estimate D2E/DX2                !
 ! A12   A(5,4,11)             120.2605         estimate D2E/DX2                !
 ! A13   A(4,5,6)              120.5299         estimate D2E/DX2                !
 ! A14   A(4,5,12)             122.3884         estimate D2E/DX2                !
 ! A15   A(6,5,12)             117.0608         estimate D2E/DX2                !
 ! A16   A(1,6,5)              119.5366         estimate D2E/DX2                !
 ! A17   A(1,6,10)             121.4719         estimate D2E/DX2                !
 ! A18   A(5,6,10)             118.9915         estimate D2E/DX2                !
 ! A19   A(5,12,13)            110.9653         estimate D2E/DX2                !
 ! A20   A(5,12,39)            112.2242         estimate D2E/DX2                !
 ! A21   A(13,12,39)            92.028          estimate D2E/DX2                !
 ! A22   A(12,13,35)           151.099          estimate D2E/DX2                !
 ! A23   A(15,14,19)           120.5365         estimate D2E/DX2                !
 ! A24   A(15,14,20)           120.099          estimate D2E/DX2                !
 ! A25   A(19,14,20)           119.3645         estimate D2E/DX2                !
 ! A26   A(14,15,16)           119.3608         estimate D2E/DX2                !
 ! A27   A(14,15,21)           120.3171         estimate D2E/DX2                !
 ! A28   A(16,15,21)           120.322          estimate D2E/DX2                !
 ! A29   A(15,16,17)           120.7311         estimate D2E/DX2                !
 ! A30   A(15,16,22)           120.1707         estimate D2E/DX2                !
 ! A31   A(17,16,22)           119.0973         estimate D2E/DX2                !
 ! A32   A(16,17,18)           119.3048         estimate D2E/DX2                !
 ! A33   A(16,17,37)           120.4288         estimate D2E/DX2                !
 ! A34   A(18,17,37)           120.2605         estimate D2E/DX2                !
 ! A35   A(17,18,19)           120.5299         estimate D2E/DX2                !
 ! A36   A(17,18,38)           122.3884         estimate D2E/DX2                !
 ! A37   A(19,18,38)           117.0608         estimate D2E/DX2                !
 ! A38   A(14,19,18)           119.5366         estimate D2E/DX2                !
 ! A39   A(14,19,23)           121.4719         estimate D2E/DX2                !
 ! A40   A(18,19,23)           118.9915         estimate D2E/DX2                !
 ! A41   A(25,24,29)           120.5299         estimate D2E/DX2                !
 ! A42   A(25,24,35)           122.3884         estimate D2E/DX2                !
 ! A43   A(29,24,35)           117.0608         estimate D2E/DX2                !
 ! A44   A(24,25,26)           119.3048         estimate D2E/DX2                !
 ! A45   A(24,25,30)           120.2605         estimate D2E/DX2                !
 ! A46   A(26,25,30)           120.4288         estimate D2E/DX2                !
 ! A47   A(25,26,27)           120.7311         estimate D2E/DX2                !
 ! A48   A(25,26,31)           119.0973         estimate D2E/DX2                !
 ! A49   A(27,26,31)           120.1707         estimate D2E/DX2                !
 ! A50   A(26,27,28)           119.3608         estimate D2E/DX2                !
 ! A51   A(26,27,32)           120.322          estimate D2E/DX2                !
 ! A52   A(28,27,32)           120.3171         estimate D2E/DX2                !
 ! A53   A(27,28,29)           120.5365         estimate D2E/DX2                !
 ! A54   A(27,28,33)           120.099          estimate D2E/DX2                !
 ! A55   A(29,28,33)           119.3645         estimate D2E/DX2                !
 ! A56   A(24,29,28)           119.5366         estimate D2E/DX2                !
 ! A57   A(24,29,34)           118.9915         estimate D2E/DX2                !
 ! A58   A(28,29,34)           121.4719         estimate D2E/DX2                !
 ! A59   A(13,35,24)           113.4361         estimate D2E/DX2                !
 ! A60   A(13,35,36)            88.8974         estimate D2E/DX2                !
 ! A61   A(24,35,36)           110.9653         estimate D2E/DX2                !
 ! A62   A(35,36,38)           150.0049         estimate D2E/DX2                !
 ! A63   A(18,38,36)           113.0172         estimate D2E/DX2                !
 ! A64   A(18,38,39)           110.9653         estimate D2E/DX2                !
 ! A65   A(36,38,39)            89.9917         estimate D2E/DX2                !
 ! A66   A(12,39,38)           147.9687         estimate D2E/DX2                !
 ! D1    D(6,1,2,3)             -0.0974         estimate D2E/DX2                !
 ! D2    D(6,1,2,8)            179.9449         estimate D2E/DX2                !
 ! D3    D(7,1,2,3)            179.847          estimate D2E/DX2                !
 ! D4    D(7,1,2,8)             -0.1107         estimate D2E/DX2                !
 ! D5    D(2,1,6,5)             -0.0673         estimate D2E/DX2                !
 ! D6    D(2,1,6,10)           179.8792         estimate D2E/DX2                !
 ! D7    D(7,1,6,5)            179.9879         estimate D2E/DX2                !
 ! D8    D(7,1,6,10)            -0.0656         estimate D2E/DX2                !
 ! D9    D(1,2,3,4)              0.165          estimate D2E/DX2                !
 ! D10   D(1,2,3,9)            179.813          estimate D2E/DX2                !
 ! D11   D(8,2,3,4)           -179.8773         estimate D2E/DX2                !
 ! D12   D(8,2,3,9)             -0.2292         estimate D2E/DX2                !
 ! D13   D(2,3,4,5)             -0.0665         estimate D2E/DX2                !
 ! D14   D(2,3,4,11)           179.0477         estimate D2E/DX2                !
 ! D15   D(9,3,4,5)           -179.7182         estimate D2E/DX2                !
 ! D16   D(9,3,4,11)            -0.6041         estimate D2E/DX2                !
 ! D17   D(3,4,5,6)             -0.1011         estimate D2E/DX2                !
 ! D18   D(3,4,5,12)           178.1853         estimate D2E/DX2                !
 ! D19   D(11,4,5,6)          -179.2168         estimate D2E/DX2                !
 ! D20   D(11,4,5,12)           -0.9305         estimate D2E/DX2                !
 ! D21   D(4,5,6,1)              0.1675         estimate D2E/DX2                !
 ! D22   D(4,5,6,10)          -179.7803         estimate D2E/DX2                !
 ! D23   D(12,5,6,1)          -178.2075         estimate D2E/DX2                !
 ! D24   D(12,5,6,10)            1.8446         estimate D2E/DX2                !
 ! D25   D(4,5,12,13)            2.6343         estimate D2E/DX2                !
 ! D26   D(4,5,12,39)          -98.7562         estimate D2E/DX2                !
 ! D27   D(6,5,12,13)         -179.0232         estimate D2E/DX2                !
 ! D28   D(6,5,12,39)           79.5863         estimate D2E/DX2                !
 ! D29   D(5,12,13,35)        -113.828          estimate D2E/DX2                !
 ! D30   D(39,12,13,35)          0.9352         estimate D2E/DX2                !
 ! D31   D(5,12,39,38)         112.6249         estimate D2E/DX2                !
 ! D32   D(13,12,39,38)         -1.03           estimate D2E/DX2                !
 ! D33   D(12,13,35,24)        111.3362         estimate D2E/DX2                !
 ! D34   D(12,13,35,36)         -1.1031         estimate D2E/DX2                !
 ! D35   D(19,14,15,16)         -0.0974         estimate D2E/DX2                !
 ! D36   D(19,14,15,21)        179.9449         estimate D2E/DX2                !
 ! D37   D(20,14,15,16)        179.847          estimate D2E/DX2                !
 ! D38   D(20,14,15,21)         -0.1107         estimate D2E/DX2                !
 ! D39   D(15,14,19,18)         -0.0673         estimate D2E/DX2                !
 ! D40   D(15,14,19,23)        179.8792         estimate D2E/DX2                !
 ! D41   D(20,14,19,18)        179.9879         estimate D2E/DX2                !
 ! D42   D(20,14,19,23)         -0.0656         estimate D2E/DX2                !
 ! D43   D(14,15,16,17)          0.165          estimate D2E/DX2                !
 ! D44   D(14,15,16,22)        179.813          estimate D2E/DX2                !
 ! D45   D(21,15,16,17)       -179.8773         estimate D2E/DX2                !
 ! D46   D(21,15,16,22)         -0.2292         estimate D2E/DX2                !
 ! D47   D(15,16,17,18)         -0.0665         estimate D2E/DX2                !
 ! D48   D(15,16,17,37)        179.0477         estimate D2E/DX2                !
 ! D49   D(22,16,17,18)       -179.7182         estimate D2E/DX2                !
 ! D50   D(22,16,17,37)         -0.6041         estimate D2E/DX2                !
 ! D51   D(16,17,18,19)         -0.1011         estimate D2E/DX2                !
 ! D52   D(16,17,18,38)        178.1853         estimate D2E/DX2                !
 ! D53   D(37,17,18,19)       -179.2168         estimate D2E/DX2                !
 ! D54   D(37,17,18,38)         -0.9305         estimate D2E/DX2                !
 ! D55   D(17,18,19,14)          0.1675         estimate D2E/DX2                !
 ! D56   D(17,18,19,23)       -179.7803         estimate D2E/DX2                !
 ! D57   D(38,18,19,14)       -178.2075         estimate D2E/DX2                !
 ! D58   D(38,18,19,23)          1.8446         estimate D2E/DX2                !
 ! D59   D(17,18,38,36)        -96.7244         estimate D2E/DX2                !
 ! D60   D(17,18,38,39)          2.6343         estimate D2E/DX2                !
 ! D61   D(19,18,38,36)         81.6182         estimate D2E/DX2                !
 ! D62   D(19,18,38,39)       -179.0232         estimate D2E/DX2                !
 ! D63   D(29,24,25,26)         -0.1011         estimate D2E/DX2                !
 ! D64   D(29,24,25,30)       -179.2168         estimate D2E/DX2                !
 ! D65   D(35,24,25,26)        178.1853         estimate D2E/DX2                !
 ! D66   D(35,24,25,30)         -0.9305         estimate D2E/DX2                !
 ! D67   D(25,24,29,28)          0.1675         estimate D2E/DX2                !
 ! D68   D(25,24,29,34)       -179.7803         estimate D2E/DX2                !
 ! D69   D(35,24,29,28)       -178.2075         estimate D2E/DX2                !
 ! D70   D(35,24,29,34)          1.8446         estimate D2E/DX2                !
 ! D71   D(25,24,35,13)        -95.6243         estimate D2E/DX2                !
 ! D72   D(25,24,35,36)          2.6343         estimate D2E/DX2                !
 ! D73   D(29,24,35,13)         82.7182         estimate D2E/DX2                !
 ! D74   D(29,24,35,36)       -179.0232         estimate D2E/DX2                !
 ! D75   D(24,25,26,27)         -0.0665         estimate D2E/DX2                !
 ! D76   D(24,25,26,31)       -179.7182         estimate D2E/DX2                !
 ! D77   D(30,25,26,27)        179.0477         estimate D2E/DX2                !
 ! D78   D(30,25,26,31)         -0.6041         estimate D2E/DX2                !
 ! D79   D(25,26,27,28)          0.165          estimate D2E/DX2                !
 ! D80   D(25,26,27,32)       -179.8773         estimate D2E/DX2                !
 ! D81   D(31,26,27,28)        179.813          estimate D2E/DX2                !
 ! D82   D(31,26,27,32)         -0.2292         estimate D2E/DX2                !
 ! D83   D(26,27,28,29)         -0.0974         estimate D2E/DX2                !
 ! D84   D(26,27,28,33)        179.847          estimate D2E/DX2                !
 ! D85   D(32,27,28,29)        179.9449         estimate D2E/DX2                !
 ! D86   D(32,27,28,33)         -0.1107         estimate D2E/DX2                !
 ! D87   D(27,28,29,24)         -0.0673         estimate D2E/DX2                !
 ! D88   D(27,28,29,34)        179.8792         estimate D2E/DX2                !
 ! D89   D(33,28,29,24)        179.9879         estimate D2E/DX2                !
 ! D90   D(33,28,29,34)         -0.0656         estimate D2E/DX2                !
 ! D91   D(13,35,36,38)          0.8835         estimate D2E/DX2                !
 ! D92   D(24,35,36,38)       -113.8645         estimate D2E/DX2                !
 ! D93   D(35,36,38,18)        111.8018         estimate D2E/DX2                !
 ! D94   D(35,36,38,39)         -1.0713         estimate D2E/DX2                !
 ! D95   D(18,38,39,12)       -113.913          estimate D2E/DX2                !
 ! D96   D(36,38,39,12)          0.8378         estimate D2E/DX2                !
 --------------------------------------------------------------------------------
 Trust Radius=3.00D-01 FncErr=1.00D-07 GrdErr=1.00D-06 EigMax=2.50D+02 EigMin=1.00D-04
 Number of steps in this run=    214 maximum allowed number of steps=    234.
 GradGradGradGradGradGradGradGradGradGradGradGradGradGradGradGradGradGrad

 Leave Link  103 at Mon Feb 11 10:42:41 2019, MaxMem=   268435456 cpu:               0.2 elap:               0.0
 (Enter /home/apps/g16/g16/l202.exe)
                          Input orientation:                          
 ---------------------------------------------------------------------
 Center     Atomic      Atomic             Coordinates (Angstroms)
 Number     Number       Type             X           Y           Z
 ---------------------------------------------------------------------
      1          6           0       -4.062357    1.025813   -0.518334
      2          6           0       -3.432451    1.706826   -1.566004
      3          6           0       -2.102180    2.111064   -1.419014
      4          6           0       -1.398925    1.839117   -0.242105
      5          6           0       -2.040516    1.155476    0.796735
      6          6           0       -3.372670    0.748483    0.663656
      7          1           0       -5.097101    0.708178   -0.618794
      8          1           0       -3.972157    1.919946   -2.484434
      9          1           0       -1.599137    2.638192   -2.225534
     10          1           0       -3.847362    0.222540    1.487276
     11          1           0       -0.360303    2.142011   -0.139045
     12          8           0       -1.399179    0.823165    1.965535
     13          1           0       -0.511342    1.152147    1.970158
     14          6           0        1.129296   -4.083861   -0.518407
     15          6           0        0.224569   -3.878853   -1.566077
     16          6           0       -0.790647   -2.928924   -1.419087
     17          6           0       -0.906762   -2.183914   -0.242178
     18          6           0        0.006084   -2.397727    0.796662
     19          6           0        1.024627   -3.347910    0.663582
     20          1           0        1.921748   -4.821159   -0.618867
     21          1           0        0.309854   -4.452813   -2.484507
     22          1           0       -1.498675   -2.756840   -2.225607
     23          1           0        1.717453   -3.496033    1.487202
     24          6           0        2.048496    1.247463    0.796662
     25          6           0        2.319751    0.350008   -0.242178
     26          6           0        2.906892    0.823071   -1.419087
     27          6           0        3.221946    2.177239   -1.566077
     28          6           0        2.947124    3.063260   -0.518407
     29          6           0        2.362107    2.604639    0.663582
     30          1           0        2.062754   -0.700912   -0.139118
     31          1           0        3.111876    0.123860   -2.225607
     32          1           0        3.676367    2.538078   -2.484507
     33          1           0        3.189417    4.118192   -0.618867
     34          1           0        2.143972    3.278705    1.487202
     35          8           0        1.440038    0.858204    1.965462
     36          1           0        1.275988   -0.104747    1.970232
     37          1           0       -1.688387   -1.435888   -0.139118
     38          8           0       -0.026795   -1.676158    1.965462
     39          1           0       -0.778710   -1.052611    1.970232
 ---------------------------------------------------------------------
                    Distance matrix (angstroms):
                    1          2          3          4          5
     1  C    0.000000
     2  C    1.399347   0.000000
     3  C    2.414806   1.398083   0.000000
     4  C    2.798506   2.430111   1.397727   0.000000
     5  C    2.415380   2.797142   2.413814   1.399354   0.000000
     6  C    1.396309   2.427628   2.794331   2.430135   1.399281
     7  H    1.087051   2.159992   3.402645   3.885541   3.398016
     8  H    2.161749   1.086378   2.160662   3.414103   3.883519
     9  H    3.403197   2.159505   1.086918   2.147696   3.395199
    10  H    2.171161   3.420201   3.880555   3.405719   2.147535
    11  H    3.885223   3.415215   2.161808   1.086785   2.161493
    12  O    3.647353   4.169750   3.688911   2.430192   1.373985
    13  H    4.338002   4.620064   3.864813   2.480693   1.927513
    14  C    7.284368   7.445740   7.044901   6.445922   6.263223
    15  C    6.597821   6.676347   6.427636   6.089649   6.004828
    16  C    5.211083   5.337686   5.207840   4.948688   4.811899
    17  C    4.509588   4.823844   4.610944   4.053024   3.676447
    18  C    5.477413   5.852612   5.448229   4.583005   4.100467
    19  C    6.812032   7.098377   6.626804   5.796476   5.449158
    20  H    8.367000   8.495828   8.055306   7.451718   7.309147
    21  H    7.279931   7.265648   7.073731   6.894685   6.909681
    22  H    4.878084   4.909061   4.971046   5.006701   4.973365
    23  H    7.607593   7.931792   7.380734   6.416085   6.019603
    24  C    6.254667   5.986149   4.783633   3.648808   4.090047
    25  C    6.423727   6.056509   4.903034   4.005746   4.554124
    26  C    7.030141   6.402333   5.172014   4.577957   5.431133
    27  C    7.448800   6.671004   5.326568   4.818680   5.858361
    28  C    7.299590   6.605782   5.216632   4.523606   5.499618
    29  C    6.720368   6.273279   4.950827   3.943558   4.636905
    30  H    6.375136   6.166886   5.185751   4.294831   4.599872
    31  H    7.429530   6.765284   5.637904   5.217635   6.061842
    32  H    8.126539   7.215949   5.891454   5.592451   6.735050
    33  H    7.884234   7.110619   5.715751   5.137024   6.175259
    34  H    6.900451   6.548998   5.276295   4.197027   4.742867
    35  O    6.039344   6.077216   5.056841   3.727633   3.683551
    36  H    5.997420   6.160857   5.273408   3.978467   3.736905
    37  H    3.440858   3.867093   3.793445   3.289385   2.777586
    38  O    5.454874   5.959390   5.486798   4.371870   3.665944
    39  H    4.614665   5.211698   4.821556   3.693398   2.800874
                    6          7          8          9         10
     6  C    0.000000
     7  H    2.149410   0.000000
     8  H    3.412063   2.492889   0.000000
     9  H    3.881216   4.306080   2.492816   0.000000
    10  H    1.086415   2.496642   4.321023   4.967378   0.000000
    11  H    3.414763   4.972253   4.312268   2.476761   4.299868
    12  O    2.365404   4.512937   5.255984   4.571582   2.565751
    13  H    3.171292   5.284787   5.692991   4.582081   3.496623
    14  C    6.709436   7.857591   8.120085   7.452826   6.880042
    15  C    6.270892   7.089314   7.216783   6.799460   6.536437
    16  C    4.952574   5.693376   5.896483   5.683027   5.265185
    17  C    3.937028   5.105387   5.591603   5.259827   4.174824
    18  C    4.618692   6.139435   6.725645   6.088586   4.710816
    19  C    6.009714   7.454657   7.913796   7.145947   6.096135
    20  H    7.790805   8.935201   9.146637   8.403566   7.947160
    21  H    7.108122   7.704017   7.677739   7.348038   7.410561
    22  H    4.913959   5.247559   5.296927   5.395967   5.308345
    23  H    6.678586   8.279418   8.802181   7.900184   6.692903
    24  C    5.445706   7.304376   6.889564   4.936904   6.023998
    25  C    5.777800   7.435040   6.861525   4.952492   6.406289
    26  C    6.616365   8.044724   7.046943   4.924359   7.377501
    27  C    7.106477   8.500708   7.257045   4.887761   7.944742
    28  C    6.833394   8.382485   7.283467   4.874778   7.632660
    29  C    6.027685   7.802618   7.106456   4.903017   6.701520
    30  H    5.682343   7.312944   6.984952   5.377006   6.198982
    31  H    7.126523   8.385141   7.312759   5.339991   7.888360
    32  H    7.924803   9.154407   7.673462   5.282806   8.817214
    33  H    7.487376   8.960725   7.720154   5.263272   8.314337
    34  H    6.124834   7.967181   7.418029   5.310889   6.725788
    35  O    4.986873   7.031008   7.086658   5.474430   5.346899
    36  H    4.903587   6.926772   7.175406   5.778798   5.156460
    37  H    2.872757   4.055421   4.688041   4.578124   3.171232
    38  O    4.332259   6.170206   6.949778   6.216938   4.293070
    39  H    3.417559   5.334035   6.235242   5.647971   3.357957
                   11         12         13         14         15
    11  H    0.000000
    12  O    2.692188   0.000000
    13  H    2.334819   0.946840   0.000000
    14  C    6.412823   6.053269   6.024984   0.000000
    15  C    6.215247   6.100641   6.193342   1.399347   0.000000
    16  C    5.247675   5.089612   5.312263   2.414806   1.398083
    17  C    4.361522   3.762844   4.022448   2.798506   2.430111
    18  C    4.649625   3.703401   3.774445   2.415380   2.797142
    19  C    5.718521   4.996778   4.931213   1.396309   2.427628
    20  H    7.343277   7.040319   6.950062   1.087051   2.159992
    21  H    7.031501   7.110528   7.206523   2.161749   1.086378
    22  H    5.445032   5.512895   5.818888   3.403197   2.159505
    23  H    6.224893   5.347680   5.177485   2.171161   3.420201
    24  C    2.734607   3.665073   2.817614   5.567526   5.931978
    25  C    3.225616   4.350669   3.681433   4.599204   4.901608
    26  C    3.748689   5.477035   4.824894   5.296136   5.415215
    27  C    3.856186   5.971650   5.243397   6.684173   6.757257
    28  C    3.454228   5.484373   4.669721   7.374675   7.530130
    29  C    2.875718   4.360734   3.474706   6.903112   7.181651
    30  H    3.735427   4.328667   3.809047   3.529808   3.938838
    31  H    4.525782   6.197122   5.638221   4.954803   4.979280
    32  H    4.685378   6.964551   6.269111   7.362282   7.344075
    33  H    4.090970   6.212210   5.403341   8.457415   8.581391
    34  H    3.195019   4.337327   3.436013   7.698014   8.014815
    35  O    3.052595   2.839433   1.973400   5.539871   6.032317
    36  H    3.489186   2.831530   2.185025   4.695550   5.277768
    37  H    3.816433   3.101052   3.540114   3.885223   3.415215
    38  O    4.372481   2.851325   2.869515   3.647353   4.169750
    39  H    3.850938   1.975738   2.220911   4.361455   4.636776
                   16         17         18         19         20
    16  C    0.000000
    17  C    1.397727   0.000000
    18  C    2.413814   1.399354   0.000000
    19  C    2.794331   2.430135   1.399281   0.000000
    20  H    3.402645   3.885541   3.398016   2.149410   0.000000
    21  H    2.160662   3.414103   3.883519   3.412063   2.492889
    22  H    1.086918   2.147696   3.395199   3.881216   4.306080
    23  H    3.880555   3.405719   2.147535   1.086415   2.496642
    24  C    5.514752   4.646190   4.178380   4.709933   6.232813
    25  C    4.670235   4.102578   3.739290   4.021486   5.200122
    26  C    5.267757   4.997102   4.868036   5.027676   5.785170
    27  C    6.495800   6.149683   6.070801   6.350344   7.180898
    28  C    7.119581   6.516255   6.340466   6.796779   7.951449
    29  C    6.700574   5.868232   5.531023   6.100958   7.548580
    30  H    3.839825   3.320834   2.825731   2.954426   4.150479
    31  H    5.019925   5.040760   5.013827   4.975662   5.333969
    32  H    7.139850   6.952001   6.971314   7.182413   7.792154
    33  H    8.132842   7.525764   7.388812   7.878685   9.028787
    34  H    7.456083   6.491374   6.104858   6.770769   8.372139
    35  O    5.547384   4.431210   3.744784   4.422540   6.258272
    36  H    4.871801   3.739263   2.871877   3.505513   5.418946
    37  H    2.161808   1.086785   2.161493   3.414763   4.972253
    38  O    3.688911   2.430192   1.373985   2.365404   4.512937
    39  H    3.874039   2.488172   1.950001   3.198086   5.310166
                   21         22         23         24         25
    21  H    0.000000
    22  H    2.492816   0.000000
    23  H    4.321023   4.967378   0.000000
    24  C    6.803094   6.144182   4.804913   0.000000
    25  C    5.668758   5.307247   4.259759   1.399354   0.000000
    26  C    5.976176   5.733695   5.340033   2.413814   1.397727
    27  C    7.299410   6.860348   6.616044   2.797142   2.430111
    28  C    8.204395   7.520188   6.968421   2.415380   2.798506
    29  C    7.995613   7.210999   6.189679   1.399281   2.430135
    30  H    4.759230   4.611296   3.252208   2.161493   1.086785
    31  H    5.372549   5.436507   5.369636   3.395199   2.147696
    32  H    7.759250   7.408390   7.484806   3.883519   3.414103
    33  H    9.232260   8.475016   8.036083   3.398016   3.885541
    34  H    8.883402   7.967536   6.788151   2.147535   3.405719
    35  O    7.020430   6.266549   4.389200   1.373985   2.430192
    36  H    6.299507   5.686600   3.453843   1.950001   2.488172
    37  H    4.312268   2.476761   4.299868   4.694715   4.389215
    38  O    5.255984   4.571582   2.565751   3.771005   3.805955
    39  H    5.708856   4.585609   3.526253   3.828929   4.057408
                   26         27         28         29         30
    26  C    0.000000
    27  C    1.398083   0.000000
    28  C    2.414806   1.399347   0.000000
    29  C    2.794331   2.427628   1.396309   0.000000
    30  H    2.161808   3.415215   3.885223   3.414763   0.000000
    31  H    1.086918   2.159505   3.403197   3.881216   2.476761
    32  H    2.160662   1.086378   2.161749   3.412063   4.312268
    33  H    3.402645   2.159992   1.087051   2.149410   4.972253
    34  H    3.880555   3.420201   2.171161   1.086415   4.299868
    35  O    3.688911   4.169750   3.647353   2.365404   2.692188
    36  H    3.874039   4.636776   4.361455   3.198087   2.328898
    37  H    5.278049   6.261171   6.471024   5.777255   3.822466
    38  O    5.129116   6.154247   6.121755   5.072175   3.121950
    39  H    5.346899   6.240406   6.084041   4.994751   3.556257
                   31         32         33         34         35
    31  H    0.000000
    32  H    2.492816   0.000000
    33  H    4.306080   2.492889   0.000000
    34  H    4.967378   4.321023   2.496642   0.000000
    35  O    4.571582   5.255984   4.512937   2.565751   0.000000
    36  H    4.585609   5.708856   5.310166   3.526253   0.976837
    37  H    5.461572   7.076287   7.407492   6.289617   4.413519
    38  O    5.536820   7.160685   7.113176   5.430619   2.928240
    39  H    5.841730   7.251583   7.013321   5.247446   2.928153
                   36         37         38         39
    36  H    0.000000
    37  H    3.874120   0.000000
    38  O    2.041225   2.692188   0.000000
    39  H    2.262793   2.328898   0.976837   0.000000
 Stoichiometry    C18H18O3
 Framework group  C1[X(C18H18O3)]
 Deg. of freedom   111
 Full point group                 C1      NOp   1
 Largest Abelian subgroup         C1      NOp   1
 Largest concise Abelian subgroup C1      NOp   1
                         Standard orientation:                         
 ---------------------------------------------------------------------
 Center     Atomic      Atomic             Coordinates (Angstroms)
 Number     Number       Type             X           Y           Z
 ---------------------------------------------------------------------
      1          6           0       -0.835319    4.109798   -0.518357
      2          6           0        0.051127    3.836351   -1.566027
      3          6           0        0.990896    2.811722   -1.419038
      4          6           0        1.049822    2.060024   -0.242128
      5          6           0        0.155953    2.342871    0.796712
      6          6           0       -0.787114    3.368006    0.663632
      7          1           0       -1.569199    4.905417   -0.618817
      8          1           0        0.009888    4.415145   -2.484457
      9          1           0        1.683727    2.586112   -2.225558
     10          1           0       -1.466617    3.568565    1.487252
     11          1           0        1.772087    1.254534   -0.139068
     12          8           0        0.133674    1.620897    1.965512
     13          1           0        0.814255    0.962645    1.970135
     14          6           0       -3.197308   -2.780995   -0.518431
     15          6           0       -3.403718   -1.876587   -1.566101
     16          6           0       -2.986248   -0.550409   -1.419111
     17          6           0       -2.364721   -0.123528   -0.242201
     18          6           0       -2.162740   -1.039065    0.796639
     19          6           0       -2.579000   -2.368352    0.663559
     20          1           0       -3.519393   -3.814363   -0.618890
     21          1           0       -3.884349   -2.201698   -2.484530
     22          1           0       -3.137280    0.162406   -2.225631
     23          1           0       -2.412937   -3.057099    1.487179
     24          6           0        2.007218   -1.304224    0.796639
     25          6           0        1.315330   -1.936913   -0.242201
     26          6           0        1.995784   -2.261731   -1.419111
     27          6           0        3.353022   -1.960181   -1.566101
     28          6           0        4.033058   -1.329220   -0.518431
     29          6           0        3.366545   -1.000071    0.663559
     30          1           0        0.256624   -2.159669   -0.139141
     31          1           0        1.453983   -2.748935   -2.225631
     32          1           0        3.874892   -2.213864   -2.484530
     33          1           0        5.089024   -1.091471   -0.618890
     34          1           0        3.879986   -0.511884    1.487179
     35          8           0        1.393109   -0.923942    1.965438
     36          1           0        0.453915   -1.192462    1.970208
     37          1           0       -2.028280    0.904717   -0.139141
     38          8           0       -1.526352   -0.697371    1.965438
     39          1           0       -1.289300    0.250254    1.970208
 ---------------------------------------------------------------------
 Rotational constants (GHZ):           0.2836594           0.2755999           0.1860894
 Leave Link  202 at Mon Feb 11 10:42:41 2019, MaxMem=   268435456 cpu:               0.1 elap:               0.0
 (Enter /home/apps/g16/g16/l301.exe)
 Standard basis: Aug-CC-pVTZ (5D, 7F)
 Ernie: Thresh=  0.10000D-02 Tol=  0.10000D-05 Strict=F.
 Ernie:  63 primitive shells out of 828 were deleted.
 There are  1605 symmetry adapted cartesian basis functions of A   symmetry.
 There are  1380 symmetry adapted basis functions of A   symmetry.
  1380 basis functions,  1998 primitive gaussians,  1605 cartesian basis functions
    75 alpha electrons       75 beta electrons
       nuclear repulsion energy      1585.5455919945 Hartrees.
 IExCor=  402 DFT=T Ex+Corr=B3LYP ExCW=0 ScaHFX=  0.200000
 ScaDFX=  0.800000  0.720000  1.000000  0.810000 ScalE2=  1.000000  1.000000
 IRadAn=      5 IRanWt=     -1 IRanGd=            0 ICorTp=0 IEmpDi=131
 NAtoms=   39 NActive=   39 NUniq=   39 SFac= 1.00D+00 NAtFMM=   60 NAOKFM=F Big=F
 Integral buffers will be    131072 words long.
 Raffenetti 2 integral format.
 Two-electron integral symmetry is turned on.
 R6Disp:  Grimme-D3 Dispersion energy=       -0.0377247375 Hartrees.
 Nuclear repulsion after empirical dispersion term =     1585.5078672570 Hartrees.
 ------------------------------------------------------------------------------
 Polarizable Continuum Model (PCM)
 =================================
 Model                : PCM.
 Atomic radii         : UFF (Universal Force Field).
 Polarization charges : Total charges.
 Charge compensation  : None.
 Solution method      : On-the-fly selection.
 Cavity type          : Scaled VdW (van der Waals Surface) (Alpha=1.100).
 Cavity algorithm     : GePol (No added spheres)
                        Default sphere list used, NSphG=   39.
                        Lebedev-Laikov grids with approx.  5.0 points / Ang**2.
                        Smoothing algorithm: York/Karplus (Gamma=1.0000).
                        Polarization charges: spherical gaussians, with
                                              point-specific exponents (IZeta= 3).
                        Self-potential: point-specific (ISelfS= 7).
                        Self-field    : sphere-specific E.n sum rule (ISelfD= 2).
 1st derivatives      : Analytical E(r).r(x)/FMM algorithm (CHGder, D1EAlg=3).
                        Cavity 1st derivative terms included.
 Solvent              : CarbonTetraChloride, Eps=   2.228000 Eps(inf)=   2.131892
 ------------------------------------------------------------------------------
 GePol: Number of generator spheres                  =      39
 GePol: Total number of spheres                      =      39
 GePol: Number of exposed spheres                    =      39 (100.00%)
 GePol: Number of points                             =    3010
 GePol: Average weight of points                     =       0.13
 GePol: Minimum weight of points                     =   0.55D-09
 GePol: Maximum weight of points                     =    0.20577
 GePol: Number of points with low weight             =     227
 GePol: Fraction of low-weight points (<1% of avg)   =       7.54%
 GePol: Cavity surface area                          =    379.326 Ang**2
 GePol: Cavity volume                                =    415.271 Ang**3
 Leave Link  301 at Mon Feb 11 10:42:42 2019, MaxMem=   268435456 cpu:               1.4 elap:               0.2
 (Enter /home/apps/g16/g16/l302.exe)
 NPDir=0 NMtPBC=     1 NCelOv=     1 NCel=       1 NClECP=     1 NCelD=      1
         NCelK=      1 NCelE2=     1 NClLst=     1 CellRange=     0.0.
 One-electron integrals computed using PRISM.
 One-electron integral symmetry used in STVInt
 NBasis=  1380 RedAO= T EigKep=  1.15D-06  NBF=  1380
 NBsUse=  1371 1.00D-06 EigRej=  8.02D-07 NBFU=  1371
 Precomputing XC quadrature grid using
 IXCGrd= 4 IRadAn=           5 IRanWt=          -1 IRanGd=           0 AccXCQ= 0.00D+00.
 Generated NRdTot=       0 NPtTot=           0 NUsed=           0 NTot=          32
 NSgBfM=  1587  1587  1587  1587  1587 MxSgAt=    39 MxSgA2=    39.
 Leave Link  302 at Mon Feb 11 10:43:03 2019, MaxMem=   268435456 cpu:             169.1 elap:              21.2
 (Enter /home/apps/g16/g16/l303.exe)
 DipDrv:  MaxL=1.
 Leave Link  303 at Mon Feb 11 10:43:04 2019, MaxMem=   268435456 cpu:               7.9 elap:               1.2
 (Enter /home/apps/g16/g16/l401.exe)
 ExpMin= 2.53D-02 ExpMax= 1.53D+04 ExpMxC= 5.22D+02 IAcc=3 IRadAn=         5 AccDes= 0.00D+00
 Harris functional with IExCor=  402 and IRadAn=       5 diagonalized for initial guess.
 HarFok:  IExCor=  402 AccDes= 0.00D+00 IRadAn=         5 IDoV= 1 UseB2=F ITyADJ=14
 ICtDFT=  3500011 ScaDFX=  1.000000  1.000000  1.000000  1.000000
 FoFCou: FMM=F IPFlag=           0 FMFlag=      100000 FMFlg1=           0
         NFxFlg=           0 DoJE=T BraDBF=F KetDBF=T FulRan=T
         wScrn=  0.000000 ICntrl=       500 IOpCl=  0 I1Cent=   200000004 NGrid=           0
         NMat0=    1 NMatS0=      1 NMatT0=    0 NMatD0=    1 NMtDS0=    0 NMtDT0=    0
 Petite list used in FoFCou.
 Harris En= -922.924895881787    
 JPrj=0 DoOrth=F DoCkMO=F.
 Leave Link  401 at Mon Feb 11 10:45:31 2019, MaxMem=   268435456 cpu:            1168.4 elap:             146.4
 (Enter /home/apps/g16/g16/l502.exe)
 Integral symmetry usage will be decided dynamically.
 Closed shell SCF:
 Using DIIS extrapolation, IDIIS=  1040.
 NGot=   268435456 LenX=   263257797 LenY=   260680167
 Requested convergence on RMS density matrix=1.00D-08 within 128 cycles.
 Requested convergence on MAX density matrix=1.00D-06.
 Requested convergence on             energy=1.00D-06.
 No special actions if energy rises.
 Fock matrices will be formed incrementally for  20 cycles.

 Cycle   1  Pass 1  IDiag  1:
 FoFJK:  IHMeth= 1 ICntrl=       0 DoSepK=F KAlg= 0 I1Cent=           0 FoldK=F
 IRaf= 890000000 NMat=       1 IRICut=       1 DoRegI=T DoRafI=F ISym2E= 0 IDoP0=0 IntGTp=1.
 FoFCou: FMM=F IPFlag=           0 FMFlag=      100000 FMFlg1=           0
         NFxFlg=           0 DoJE=F BraDBF=F KetDBF=F FulRan=T
         wScrn=  0.000000 ICntrl=         0 IOpCl=  0 I1Cent=           0 NGrid=           0
         NMat0=    1 NMatS0=      1 NMatT0=    0 NMatD0=    1 NMtDS0=    0 NMtDT0=    0
 Symmetry not used in FoFCou.
 Inv3:  Mode=1 IEnd=    27180300.
 Iteration    1 A*A^-1 deviation from unit magnitude is 1.02D-14 for   1105.
 Iteration    1 A*A^-1 deviation from orthogonality  is 2.86D-15 for   3001    804.
 Iteration    1 A^-1*A deviation from unit magnitude is 1.02D-14 for   1105.
 Iteration    1 A^-1*A deviation from orthogonality  is 3.87D-15 for   2315   2273.
 E= -922.258650379739    
 DIIS: error= 1.33D-02 at cycle   1 NSaved=   1.
 NSaved= 1 IEnMin= 1 EnMin= -922.258650379739     IErMin= 1 ErrMin= 1.33D-02
 ErrMax= 1.33D-02  0.00D+00 EMaxC= 1.00D-01 BMatC= 6.34D-01 BMatP= 6.34D-01
 IDIUse=3 WtCom= 8.67D-01 WtEn= 1.33D-01
 Coeff-Com:  0.100D+01
 Coeff-En:   0.100D+01
 Coeff:      0.100D+01
 Gap=     0.222 Goal=   None    Shift=    0.000
 GapD=    0.222 DampG=1.000 DampE=0.500 DampFc=0.5000 IDamp=-1.
 Damping current iteration by 5.00D-01
 RMSDP=2.04D-03 MaxDP=3.25D-01              OVMax= 2.17D-01

 Cycle   2  Pass 1  IDiag  1:
 RMSU=  1.02D-03    CP:  9.91D-01
 E= -922.501081454062     Delta-E=       -0.242431074323 Rises=F Damp=T
 DIIS: error= 3.24D-03 at cycle   2 NSaved=   2.
 NSaved= 2 IEnMin= 2 EnMin= -922.501081454062     IErMin= 2 ErrMin= 3.24D-03
 ErrMax= 3.24D-03  0.00D+00 EMaxC= 1.00D-01 BMatC= 3.72D-02 BMatP= 6.34D-01
 IDIUse=3 WtCom= 9.68D-01 WtEn= 3.24D-02
 Coeff-Com:  0.498D-01 0.950D+00
 Coeff-En:   0.137D+00 0.863D+00
 Coeff:      0.526D-01 0.947D+00
 Gap=     0.229 Goal=   None    Shift=    0.000
 RMSDP=5.85D-04 MaxDP=4.10D-02 DE=-2.42D-01 OVMax= 1.52D-01

 Cycle   3  Pass 1  IDiag  1:
 RMSU=  5.71D-04    CP:  9.73D-01  9.23D-01
 E= -922.802552926786     Delta-E=       -0.301471472724 Rises=F Damp=F
 DIIS: error= 3.39D-03 at cycle   3 NSaved=   3.
 NSaved= 3 IEnMin= 3 EnMin= -922.802552926786     IErMin= 2 ErrMin= 3.24D-03
 ErrMax= 3.39D-03  0.00D+00 EMaxC= 1.00D-01 BMatC= 2.32D-02 BMatP= 3.72D-02
 IDIUse=3 WtCom= 9.66D-01 WtEn= 3.39D-02
 Coeff-Com: -0.347D-01 0.428D+00 0.607D+00
 Coeff-En:   0.000D+00 0.000D+00 0.100D+01
 Coeff:     -0.335D-01 0.414D+00 0.620D+00
 Gap=     0.209 Goal=   None    Shift=    0.000
 RMSDP=2.06D-04 MaxDP=1.88D-02 DE=-3.01D-01 OVMax= 6.07D-02

 Cycle   4  Pass 1  IDiag  1:
 RMSU=  1.95D-04    CP:  9.72D-01  9.37D-01  8.85D-01
 E= -922.816518729825     Delta-E=       -0.013965803039 Rises=F Damp=F
 DIIS: error= 2.49D-03 at cycle   4 NSaved=   4.
 NSaved= 4 IEnMin= 4 EnMin= -922.816518729825     IErMin= 4 ErrMin= 2.49D-03
 ErrMax= 2.49D-03  0.00D+00 EMaxC= 1.00D-01 BMatC= 9.53D-03 BMatP= 2.32D-02
 IDIUse=3 WtCom= 9.75D-01 WtEn= 2.49D-02
 Coeff-Com: -0.318D-01 0.144D+00 0.415D+00 0.473D+00
 Coeff-En:   0.000D+00 0.000D+00 0.325D+00 0.675D+00
 Coeff:     -0.310D-01 0.140D+00 0.413D+00 0.478D+00
 Gap=     0.205 Goal=   None    Shift=    0.000
 RMSDP=9.13D-05 MaxDP=1.16D-02 DE=-1.40D-02 OVMax= 2.78D-02

 Cycle   5  Pass 1  IDiag  1:
 RMSU=  5.23D-05    CP:  9.74D-01  9.47D-01  8.90D-01  6.24D-01
 E= -922.826890585148     Delta-E=       -0.010371855323 Rises=F Damp=F
 DIIS: error= 2.90D-04 at cycle   5 NSaved=   5.
 NSaved= 5 IEnMin= 5 EnMin= -922.826890585148     IErMin= 5 ErrMin= 2.90D-04
 ErrMax= 2.90D-04  0.00D+00 EMaxC= 1.00D-01 BMatC= 1.88D-04 BMatP= 9.53D-03
 IDIUse=3 WtCom= 9.97D-01 WtEn= 2.90D-03
 Coeff-Com: -0.896D-02 0.181D-01 0.101D+00 0.188D+00 0.702D+00
 Coeff-En:   0.000D+00 0.000D+00 0.000D+00 0.000D+00 0.100D+01
 Coeff:     -0.893D-02 0.181D-01 0.100D+00 0.187D+00 0.703D+00
 Gap=     0.205 Goal=   None    Shift=    0.000
 RMSDP=1.88D-05 MaxDP=1.00D-03 DE=-1.04D-02 OVMax= 3.47D-03

 Cycle   6  Pass 1  IDiag  1:
 RMSU=  1.17D-05    CP:  9.74D-01  9.54D-01  8.94D-01  6.43D-01  7.69D-01
 E= -922.827072368772     Delta-E=       -0.000181783625 Rises=F Damp=F
 DIIS: error= 6.00D-05 at cycle   6 NSaved=   6.
 NSaved= 6 IEnMin= 6 EnMin= -922.827072368772     IErMin= 6 ErrMin= 6.00D-05
 ErrMax= 6.00D-05  0.00D+00 EMaxC= 1.00D-01 BMatC= 1.15D-05 BMatP= 1.88D-04
 IDIUse=1 WtCom= 1.00D+00 WtEn= 0.00D+00
 Coeff-Com: -0.395D-02 0.673D-02 0.435D-01 0.851D-01 0.356D+00 0.512D+00
 Coeff:     -0.395D-02 0.673D-02 0.435D-01 0.851D-01 0.356D+00 0.512D+00
 Gap=     0.206 Goal=   None    Shift=    0.000
 RMSDP=4.00D-06 MaxDP=3.41D-04 DE=-1.82D-04 OVMax= 5.31D-04

 Cycle   7  Pass 1  IDiag  1:
 RMSU=  3.46D-06    CP:  9.74D-01  9.53D-01  8.95D-01  6.41D-01  7.86D-01
                    CP:  8.75D-01
 E= -922.827081416414     Delta-E=       -0.000009047641 Rises=F Damp=F
 DIIS: error= 1.94D-05 at cycle   7 NSaved=   7.
 NSaved= 7 IEnMin= 7 EnMin= -922.827081416414     IErMin= 7 ErrMin= 1.94D-05
 ErrMax= 1.94D-05  0.00D+00 EMaxC= 1.00D-01 BMatC= 9.94D-07 BMatP= 1.15D-05
 IDIUse=1 WtCom= 1.00D+00 WtEn= 0.00D+00
 Coeff-Com: -0.437D-03 0.983D-04 0.577D-02 0.130D-01 0.685D-01 0.245D+00
 Coeff-Com:  0.668D+00
 Coeff:     -0.437D-03 0.983D-04 0.577D-02 0.130D-01 0.685D-01 0.245D+00
 Coeff:      0.668D+00
 Gap=     0.206 Goal=   None    Shift=    0.000
 RMSDP=1.13D-06 MaxDP=8.40D-05 DE=-9.05D-06 OVMax= 1.45D-04

 Cycle   8  Pass 1  IDiag  1:
 RMSU=  8.79D-07    CP:  9.74D-01  9.53D-01  8.96D-01  6.41D-01  7.82D-01
                    CP:  8.81D-01  8.25D-01
 E= -922.827082124308     Delta-E=       -0.000000707894 Rises=F Damp=F
 DIIS: error= 5.65D-06 at cycle   8 NSaved=   8.
 NSaved= 8 IEnMin= 8 EnMin= -922.827082124308     IErMin= 8 ErrMin= 5.65D-06
 ErrMax= 5.65D-06  0.00D+00 EMaxC= 1.00D-01 BMatC= 6.68D-08 BMatP= 9.94D-07
 IDIUse=1 WtCom= 1.00D+00 WtEn= 0.00D+00
 Coeff-Com:  0.131D-04-0.327D-03 0.290D-03 0.145D-02 0.126D-01 0.848D-01
 Coeff-Com:  0.310D+00 0.591D+00
 Coeff:      0.131D-04-0.327D-03 0.290D-03 0.145D-02 0.126D-01 0.848D-01
 Coeff:      0.310D+00 0.591D+00
 Gap=     0.206 Goal=   None    Shift=    0.000
 RMSDP=3.14D-07 MaxDP=3.07D-05 DE=-7.08D-07 OVMax= 5.48D-05

 Cycle   9  Pass 1  IDiag  1:
 RMSU=  2.78D-07    CP:  9.74D-01  9.53D-01  8.96D-01  6.41D-01  7.82D-01
                    CP:  8.85D-01  8.59D-01  9.40D-01
 E= -922.827082170343     Delta-E=       -0.000000046035 Rises=F Damp=F
 DIIS: error= 1.90D-06 at cycle   9 NSaved=   9.
 NSaved= 9 IEnMin= 9 EnMin= -922.827082170343     IErMin= 9 ErrMin= 1.90D-06
 ErrMax= 1.90D-06  0.00D+00 EMaxC= 1.00D-01 BMatC= 1.06D-08 BMatP= 6.68D-08
 IDIUse=1 WtCom= 1.00D+00 WtEn= 0.00D+00
 Coeff-Com:  0.473D-04-0.156D-03-0.386D-03-0.498D-03-0.172D-03 0.179D-01
 Coeff-Com:  0.900D-01 0.319D+00 0.574D+00
 Coeff:      0.473D-04-0.156D-03-0.386D-03-0.498D-03-0.172D-03 0.179D-01
 Coeff:      0.900D-01 0.319D+00 0.574D+00
 Gap=     0.206 Goal=   None    Shift=    0.000
 RMSDP=1.11D-07 MaxDP=9.25D-06 DE=-4.60D-08 OVMax= 2.72D-05

 Cycle  10  Pass 1  IDiag  1:
 RMSU=  8.80D-08    CP:  9.74D-01  9.53D-01  8.96D-01  6.41D-01  7.82D-01
                    CP:  8.87D-01  8.62D-01  9.63D-01  7.96D-01
 E= -922.827082179915     Delta-E=       -0.000000009572 Rises=F Damp=F
 DIIS: error= 3.67D-07 at cycle  10 NSaved=  10.
 NSaved=10 IEnMin=10 EnMin= -922.827082179915     IErMin=10 ErrMin= 3.67D-07
 ErrMax= 3.67D-07  0.00D+00 EMaxC= 1.00D-01 BMatC= 4.17D-10 BMatP= 1.06D-08
 IDIUse=1 WtCom= 1.00D+00 WtEn= 0.00D+00
 Coeff-Com:  0.141D-04-0.341D-04-0.143D-03-0.261D-03-0.637D-03 0.128D-02
 Coeff-Com:  0.138D-01 0.742D-01 0.230D+00 0.682D+00
 Coeff:      0.141D-04-0.341D-04-0.143D-03-0.261D-03-0.637D-03 0.128D-02
 Coeff:      0.138D-01 0.742D-01 0.230D+00 0.682D+00
 Gap=     0.206 Goal=   None    Shift=    0.000
 RMSDP=2.80D-08 MaxDP=3.61D-06 DE=-9.57D-09 OVMax= 5.63D-06

 Cycle  11  Pass 1  IDiag  1:
 RMSU=  2.25D-08    CP:  9.74D-01  9.53D-01  8.96D-01  6.41D-01  7.82D-01
                    CP:  8.87D-01  8.63D-01  9.66D-01  8.29D-01  9.05D-01
 E= -922.827082180115     Delta-E=       -0.000000000200 Rises=F Damp=F
 DIIS: error= 1.64D-07 at cycle  11 NSaved=  11.
 NSaved=11 IEnMin=11 EnMin= -922.827082180115     IErMin=11 ErrMin= 1.64D-07
 ErrMax= 1.64D-07  0.00D+00 EMaxC= 1.00D-01 BMatC= 9.01D-11 BMatP= 4.17D-10
 IDIUse=1 WtCom= 1.00D+00 WtEn= 0.00D+00
 Coeff-Com:  0.425D-05-0.678D-05-0.536D-04-0.122D-03-0.395D-03-0.104D-02
 Coeff-Com: -0.268D-03 0.132D-01 0.873D-01 0.403D+00 0.498D+00
 Coeff:      0.425D-05-0.678D-05-0.536D-04-0.122D-03-0.395D-03-0.104D-02
 Coeff:     -0.268D-03 0.132D-01 0.873D-01 0.403D+00 0.498D+00
 Gap=     0.206 Goal=   None    Shift=    0.000
 RMSDP=1.11D-08 MaxDP=1.99D-06 DE=-2.00D-10 OVMax= 2.81D-06

 Cycle  12  Pass 1  IDiag  1:
 RMSU=  9.26D-09    CP:  9.74D-01  9.53D-01  8.96D-01  6.41D-01  7.82D-01
                    CP:  8.87D-01  8.63D-01  9.68D-01  8.35D-01  9.35D-01
                    CP:  8.46D-01
 E= -922.827082180461     Delta-E=       -0.000000000347 Rises=F Damp=F
 DIIS: error= 4.81D-08 at cycle  12 NSaved=  12.
 NSaved=12 IEnMin=12 EnMin= -922.827082180461     IErMin=12 ErrMin= 4.81D-08
 ErrMax= 4.81D-08  0.00D+00 EMaxC= 1.00D-01 BMatC= 6.15D-12 BMatP= 9.01D-11
 IDIUse=1 WtCom= 1.00D+00 WtEn= 0.00D+00
 Coeff-Com:  0.569D-06 0.203D-06-0.911D-05-0.289D-04-0.116D-03-0.648D-03
 Coeff-Com: -0.153D-02-0.240D-02 0.162D-01 0.111D+00 0.241D+00 0.636D+00
 Coeff:      0.569D-06 0.203D-06-0.911D-05-0.289D-04-0.116D-03-0.648D-03
 Coeff:     -0.153D-02-0.240D-02 0.162D-01 0.111D+00 0.241D+00 0.636D+00
 Gap=     0.206 Goal=   None    Shift=    0.000
 RMSDP=3.54D-09 MaxDP=2.60D-07 DE=-3.47D-10 OVMax= 7.06D-07

 Error on total polarization charges =  0.01498
 SCF Done:  E(RB3LYP) =  -922.827082180     A.U. after   12 cycles
            NFock= 12  Conv=0.35D-08     -V/T= 2.0066
 KE= 9.167455593080D+02 PE=-5.318562173569D+03 EE= 1.893481664823D+03
 Leave Link  502 at Mon Feb 11 22:50:38 2019, MaxMem=   268435456 cpu:          347541.1 elap:           43507.1
 (Enter /home/apps/g16/g16/l601.exe)
 Copying SCF densities to generalized density rwf, IOpCl= 0 IROHF=0.

 **********************************************************************

            Population analysis using the SCF density.

 **********************************************************************

 Orbital symmetries:
       Occupied  (A) (A) (A) (A) (A) (A) (A) (A) (A) (A) (A) (A)
                 (A) (A) (A) (A) (A) (A) (A) (A) (A) (A) (A) (A)
                 (A) (A) (A) (A) (A) (A) (A) (A) (A) (A) (A) (A)
                 (A) (A) (A) (A) (A) (A) (A) (A) (A) (A) (A) (A)
                 (A) (A) (A) (A) (A) (A) (A) (A) (A) (A) (A) (A)
                 (A) (A) (A) (A) (A) (A) (A) (A) (A) (A) (A) (A)
                 (A) (A) (A)
       Virtual   (A) (A) (A) (A) (A) (A) (A) (A) (A) (A) (A) (A)
                 (A) (A) (A) (A) (A) (A) (A) (A) (A) (A) (A) (A)
                 (A) (A) (A) (A) (A) (A) (A) (A) (A) (A) (A) (A)
                 (A) (A) (A) (A) (A) (A) (A) (A) (A) (A) (A) (A)
                 (A) (A) (A) (A) (A) (A) (A) (A) (A) (A) (A) (A)
                 (A) (A) (A) (A) (A) (A) (A) (A) (A) (A) (A) (A)
                 (A) (A) (A) (A) (A) (A) (A) (A) (A) (A) (A) (A)
                 (A) (A) (A) (A) (A) (A) (A) (A) (A) (A) (A) (A)
                 (A) (A) (A) (A) (A) (A) (A) (A) (A) (A) (A) (A)
                 (A) (A) (A) (A) (A) (A) (A) (A) (A) (A) (A) (A)
                 (A) (A) (A) (A) (A) (A) (A) (A) (A) (A) (A) (A)
                 (A) (A) (A) (A) (A) (A) (A) (A) (A) (A) (A) (A)
                 (A) (A) (A) (A) (A) (A) (A) (A) (A) (A) (A) (A)
                 (A) (A) (A) (A) (A) (A) (A) (A) (A) (A) (A) (A)
                 (A) (A) (A) (A) (A) (A) (A) (A) (A) (A) (A) (A)
                 (A) (A) (A) (A) (A) (A) (A) (A) (A) (A) (A) (A)
                 (A) (A) (A) (A) (A) (A) (A) (A) (A) (A) (A) (A)
                 (A) (A) (A) (A) (A) (A) (A) (A) (A) (A) (A) (A)
                 (A) (A) (A) (A) (A) (A) (A) (A) (A) (A) (A) (A)
                 (A) (A) (A) (A) (A) (A) (A) (A) (A) (A) (A) (A)
                 (A) (A) (A) (A) (A) (A) (A) (A) (A) (A) (A) (A)
                 (A) (A) (A) (A) (A) (A) (A) (A) (A) (A) (A) (A)
                 (A) (A) (A) (A) (A) (A) (A) (A) (A) (A) (A) (A)
                 (A) (A) (A) (A) (A) (A) (A) (A) (A) (A) (A) (A)
                 (A) (A) (A) (A) (A) (A) (A) (A) (A) (A) (A) (A)
                 (A) (A) (A) (A) (A) (A) (A) (A) (A) (A) (A) (A)
                 (A) (A) (A) (A) (A) (A) (A) (A) (A) (A) (A) (A)
                 (A) (A) (A) (A) (A) (A) (A) (A) (A) (A) (A) (A)
                 (A) (A) (A) (A) (A) (A) (A) (A) (A) (A) (A) (A)
                 (A) (A) (A) (A) (A) (A) (A) (A) (A) (A) (A) (A)
                 (A) (A) (A) (A) (A) (A) (A) (A) (A) (A) (A) (A)
                 (A) (A) (A) (A) (A) (A) (A) (A) (A) (A) (A) (A)
                 (A) (A) (A) (A) (A) (A) (A) (A) (A) (A) (A) (A)
                 (A) (A) (A) (A) (A) (A) (A) (A) (A) (A) (A) (A)
                 (A) (A) (A) (A) (A) (A) (A) (A) (A) (A) (A) (A)
                 (A) (A) (A) (A) (A) (A) (A) (A) (A) (A) (A) (A)
                 (A) (A) (A) (A) (A) (A) (A) (A) (A) (A) (A) (A)
                 (A) (A) (A) (A) (A) (A) (A) (A) (A) (A) (A) (A)
                 (A) (A) (A) (A) (A) (A) (A) (A) (A) (A) (A) (A)
                 (A) (A) (A) (A) (A) (A) (A) (A) (A) (A) (A) (A)
                 (A) (A) (A) (A) (A) (A) (A) (A) (A) (A) (A) (A)
                 (A) (A) (A) (A) (A) (A) (A) (A) (A) (A) (A) (A)
                 (A) (A) (A) (A) (A) (A) (A) (A) (A) (A) (A) (A)
                 (A) (A) (A) (A) (A) (A) (A) (A) (A) (A) (A) (A)
                 (A) (A) (A) (A) (A) (A) (A) (A) (A) (A) (A) (A)
                 (A) (A) (A) (A) (A) (A) (A) (A) (A) (A) (A) (A)
                 (A) (A) (A) (A) (A) (A) (A) (A) (A) (A) (A) (A)
                 (A) (A) (A) (A) (A) (A) (A) (A) (A) (A) (A) (A)
                 (A) (A) (A) (A) (A) (A) (A) (A) (A) (A) (A) (A)
                 (A) (A) (A) (A) (A) (A) (A) (A) (A) (A) (A) (A)
                 (A) (A) (A) (A) (A) (A) (A) (A) (A) (A) (A) (A)
                 (A) (A) (A) (A) (A) (A) (A) (A) (A) (A) (A) (A)
                 (A) (A) (A) (A) (A) (A) (A) (A) (A) (A) (A) (A)
                 (A) (A) (A) (A) (A) (A) (A) (A) (A) (A) (A) (A)
                 (A) (A) (A) (A) (A) (A) (A) (A) (A) (A) (A) (A)
                 (A) (A) (A) (A) (A) (A) (A) (A) (A) (A) (A) (A)
                 (A) (A) (A) (A) (A) (A) (A) (A) (A) (A) (A) (A)
                 (A) (A) (A) (A) (A) (A) (A) (A) (A) (A) (A) (A)
                 (A) (A) (A) (A) (A) (A) (A) (A) (A) (A) (A) (A)
                 (A) (A) (A) (A) (A) (A) (A) (A) (A) (A) (A) (A)
                 (A) (A) (A) (A) (A) (A) (A) (A) (A) (A) (A) (A)
                 (A) (A) (A) (A) (A) (A) (A) (A) (A) (A) (A) (A)
                 (A) (A) (A) (A) (A) (A) (A) (A) (A) (A) (A) (A)
                 (A) (A) (A) (A) (A) (A) (A) (A) (A) (A) (A) (A)
                 (A) (A) (A) (A) (A) (A) (A) (A) (A) (A) (A) (A)
                 (A) (A) (A) (A) (A) (A) (A) (A) (A) (A) (A) (A)
                 (A) (A) (A) (A) (A) (A) (A) (A) (A) (A) (A) (A)
                 (A) (A) (A) (A) (A) (A) (A) (A) (A) (A) (A) (A)
                 (A) (A) (A) (A) (A) (A) (A) (A) (A) (A) (A) (A)
                 (A) (A) (A) (A) (A) (A) (A) (A) (A) (A) (A) (A)
                 (A) (A) (A) (A) (A) (A) (A) (A) (A) (A) (A) (A)
                 (A) (A) (A) (A) (A) (A) (A) (A) (A) (A) (A) (A)
                 (A) (A) (A) (A) (A) (A) (A) (A) (A) (A) (A) (A)
                 (A) (A) (A) (A) (A) (A) (A) (A) (A) (A) (A) (A)
                 (A) (A) (A) (A) (A) (A) (A) (A) (A) (A) (A) (A)
                 (A) (A) (A) (A) (A) (A) (A) (A) (A) (A) (A) (A)
                 (A) (A) (A) (A) (A) (A) (A) (A) (A) (A) (A) (A)
                 (A) (A) (A) (A) (A) (A) (A) (A) (A) (A) (A) (A)
                 (A) (A) (A) (A) (A) (A) (A) (A) (A) (A) (A) (A)
                 (A) (A) (A) (A) (A) (A) (A) (A) (A) (A) (A) (A)
                 (A) (A) (A) (A) (A) (A) (A) (A) (A) (A) (A) (A)
                 (A) (A) (A) (A) (A) (A) (A) (A) (A) (A) (A) (A)
                 (A) (A) (A) (A) (A) (A) (A) (A) (A) (A) (A) (A)
                 (A) (A) (A) (A) (A) (A) (A) (A) (A) (A) (A) (A)
                 (A) (A) (A) (A) (A) (A) (A) (A) (A) (A) (A) (A)
                 (A) (A) (A) (A) (A) (A) (A) (A) (A) (A) (A) (A)
                 (A) (A) (A) (A) (A) (A) (A) (A) (A) (A) (A) (A)
                 (A) (A) (A) (A) (A) (A) (A) (A) (A) (A) (A) (A)
                 (A) (A) (A) (A) (A) (A) (A) (A) (A) (A) (A) (A)
                 (A) (A) (A) (A) (A) (A) (A) (A) (A) (A) (A) (A)
                 (A) (A) (A) (A) (A) (A) (A) (A) (A) (A) (A) (A)
                 (A) (A) (A) (A) (A) (A) (A) (A) (A) (A) (A) (A)
                 (A) (A) (A) (A) (A) (A) (A) (A) (A) (A) (A) (A)
                 (A) (A) (A) (A) (A) (A) (A) (A) (A) (A) (A) (A)
                 (A) (A) (A) (A) (A) (A) (A) (A) (A) (A) (A) (A)
                 (A) (A) (A) (A) (A) (A) (A) (A) (A) (A) (A) (A)
                 (A) (A) (A) (A) (A) (A) (A) (A) (A) (A) (A) (A)
                 (A) (A) (A) (A) (A) (A) (A) (A) (A) (A) (A) (A)
                 (A) (A) (A) (A) (A) (A) (A) (A) (A) (A) (A) (A)
                 (A) (A) (A) (A) (A) (A) (A) (A) (A) (A) (A) (A)
                 (A) (A) (A) (A) (A) (A) (A) (A) (A) (A) (A) (A)
                 (A) (A) (A) (A) (A) (A) (A) (A) (A) (A) (A) (A)
                 (A) (A) (A) (A) (A) (A) (A) (A) (A) (A) (A) (A)
                 (A) (A) (A) (A) (A) (A) (A) (A) (A) (A) (A) (A)
                 (A) (A) (A) (A) (A) (A) (A) (A) (A) (A) (A) (A)
                 (A) (A) (A) (A) (A) (A) (A) (A) (A) (A) (A) (A)
                 (A) (A) (A) (A) (A) (A) (A) (A) (A) (A) (A) (A)
                 (A) (A) (A) (A) (A) (A) (A) (A) (A) (A) (A) (A)
 The electronic state is 1-A.
 Alpha  occ. eigenvalues --  -19.17281 -19.17031 -19.16998 -10.24907 -10.24894
 Alpha  occ. eigenvalues --  -10.24794 -10.18916 -10.18899 -10.18888 -10.18868
 Alpha  occ. eigenvalues --  -10.18834 -10.18806 -10.18500 -10.18461 -10.18399
 Alpha  occ. eigenvalues --  -10.18388 -10.18382 -10.18302 -10.18087 -10.18075
 Alpha  occ. eigenvalues --  -10.18002  -1.08271  -1.07043  -1.06772  -0.86022
 Alpha  occ. eigenvalues --   -0.85873  -0.85797  -0.75799  -0.75776  -0.75685
 Alpha  occ. eigenvalues --   -0.75066  -0.74659  -0.74576  -0.63676  -0.63385
 Alpha  occ. eigenvalues --   -0.63265  -0.61498  -0.61112  -0.61032  -0.55802
 Alpha  occ. eigenvalues --   -0.55368  -0.55234  -0.50854  -0.50796  -0.50724
 Alpha  occ. eigenvalues --   -0.47786  -0.47663  -0.47575  -0.44766  -0.44719
 Alpha  occ. eigenvalues --   -0.44648  -0.43893  -0.43591  -0.43512  -0.42659
 Alpha  occ. eigenvalues --   -0.42301  -0.42222  -0.40506  -0.40387  -0.39758
 Alpha  occ. eigenvalues --   -0.37197  -0.37002  -0.36940  -0.35515  -0.35299
 Alpha  occ. eigenvalues --   -0.35237  -0.34789  -0.34752  -0.34662  -0.26954
 Alpha  occ. eigenvalues --   -0.26483  -0.26446  -0.24400  -0.23922  -0.23829
 Alpha virt. eigenvalues --   -0.03277  -0.02324  -0.02299  -0.01273  -0.01251
 Alpha virt. eigenvalues --   -0.01238  -0.01163  -0.00264  -0.00255   0.00041
 Alpha virt. eigenvalues --    0.01224   0.01231   0.01499   0.01932   0.01945
 Alpha virt. eigenvalues --    0.02704   0.03205   0.03209   0.03722   0.03742
 Alpha virt. eigenvalues --    0.03857   0.04340   0.05374   0.05414   0.05429
 Alpha virt. eigenvalues --    0.05857   0.06406   0.06569   0.06585   0.07327
 Alpha virt. eigenvalues --    0.07329   0.07440   0.07472   0.07503   0.07774
 Alpha virt. eigenvalues --    0.07952   0.07967   0.08356   0.08373   0.08393
 Alpha virt. eigenvalues --    0.08987   0.09040   0.09401   0.09595   0.09981
 Alpha virt. eigenvalues --    0.10001   0.10616   0.10655   0.10717   0.10803
 Alpha virt. eigenvalues --    0.10989   0.11016   0.11730   0.11772   0.11944
 Alpha virt. eigenvalues --    0.12259   0.12678   0.12694   0.12744   0.13022
 Alpha virt. eigenvalues --    0.13066   0.13336   0.13395   0.13833   0.13919
 Alpha virt. eigenvalues --    0.14370   0.14642   0.14683   0.14738   0.14948
 Alpha virt. eigenvalues --    0.15322   0.15339   0.15395   0.16396   0.16888
 Alpha virt. eigenvalues --    0.16941   0.17149   0.17176   0.17225   0.17868
 Alpha virt. eigenvalues --    0.18371   0.18508   0.18551   0.18834   0.18879
 Alpha virt. eigenvalues --    0.18943   0.19113   0.19584   0.19670   0.19693
 Alpha virt. eigenvalues --    0.20167   0.20225   0.20380   0.20658   0.20695
 Alpha virt. eigenvalues --    0.20887   0.20942   0.21233   0.21310   0.21626
 Alpha virt. eigenvalues --    0.21676   0.22038   0.22174   0.22208   0.22364
 Alpha virt. eigenvalues --    0.22375   0.22785   0.22851   0.23044   0.23196
 Alpha virt. eigenvalues --    0.23628   0.23646   0.23683   0.24312   0.24319
 Alpha virt. eigenvalues --    0.25226   0.25439   0.25510   0.26061   0.26129
 Alpha virt. eigenvalues --    0.26139   0.26427   0.26512   0.26643   0.27007
 Alpha virt. eigenvalues --    0.27641   0.27682   0.27920   0.28453   0.28516
 Alpha virt. eigenvalues --    0.28743   0.28804   0.28823   0.29296   0.29425
 Alpha virt. eigenvalues --    0.29463   0.29838   0.30118   0.30292   0.30596
 Alpha virt. eigenvalues --    0.30976   0.31256   0.31310   0.31712   0.31857
 Alpha virt. eigenvalues --    0.32301   0.32374   0.32856   0.33221   0.33290
 Alpha virt. eigenvalues --    0.33560   0.33844   0.33934   0.34145   0.34317
 Alpha virt. eigenvalues --    0.34525   0.34649   0.34882   0.35350   0.35416
 Alpha virt. eigenvalues --    0.35461   0.35518   0.35879   0.35981   0.36526
 Alpha virt. eigenvalues --    0.36942   0.36958   0.37509   0.37574   0.37893
 Alpha virt. eigenvalues --    0.38267   0.38289   0.38382   0.39259   0.39434
 Alpha virt. eigenvalues --    0.39507   0.39597   0.39829   0.39857   0.40261
 Alpha virt. eigenvalues --    0.40742   0.40836   0.41710   0.41803   0.42181
 Alpha virt. eigenvalues --    0.42263   0.42628   0.42684   0.42724   0.42783
 Alpha virt. eigenvalues --    0.42999   0.43393   0.43451   0.43472   0.43793
 Alpha virt. eigenvalues --    0.43980   0.44073   0.44289   0.44537   0.44657
 Alpha virt. eigenvalues --    0.44731   0.44744   0.45038   0.45420   0.45474
 Alpha virt. eigenvalues --    0.45647   0.46069   0.46096   0.46755   0.46845
 Alpha virt. eigenvalues --    0.46869   0.46979   0.47452   0.47579   0.48303
 Alpha virt. eigenvalues --    0.48438   0.48462   0.48669   0.48912   0.49099
 Alpha virt. eigenvalues --    0.49116   0.49667   0.49752   0.49995   0.50536
 Alpha virt. eigenvalues --    0.50758   0.51490   0.51561   0.51647   0.52183
 Alpha virt. eigenvalues --    0.52245   0.52578   0.53284   0.53959   0.54017
 Alpha virt. eigenvalues --    0.54137   0.54537   0.54647   0.55232   0.55362
 Alpha virt. eigenvalues --    0.56354   0.56356   0.56407   0.56556   0.56682
 Alpha virt. eigenvalues --    0.56812   0.57626   0.57726   0.57964   0.58030
 Alpha virt. eigenvalues --    0.58861   0.59578   0.59717   0.60041   0.60093
 Alpha virt. eigenvalues --    0.60207   0.60222   0.60611   0.60678   0.61101
 Alpha virt. eigenvalues --    0.61235   0.61380   0.61822   0.61905   0.62072
 Alpha virt. eigenvalues --    0.62886   0.62938   0.63079   0.64155   0.64405
 Alpha virt. eigenvalues --    0.64540   0.64652   0.65599   0.65819   0.65955
 Alpha virt. eigenvalues --    0.66773   0.66862   0.67000   0.67240   0.67406
 Alpha virt. eigenvalues --    0.67666   0.67784   0.68039   0.68765   0.68895
 Alpha virt. eigenvalues --    0.69090   0.69121   0.69462   0.69539   0.69603
 Alpha virt. eigenvalues --    0.70957   0.71160   0.71222   0.71769   0.71884
 Alpha virt. eigenvalues --    0.72092   0.72787   0.72907   0.73604   0.73779
 Alpha virt. eigenvalues --    0.73964   0.74130   0.74252   0.74395   0.75033
 Alpha virt. eigenvalues --    0.75433   0.75475   0.75812   0.75880   0.75963
 Alpha virt. eigenvalues --    0.76218   0.76254   0.76535   0.76632   0.77142
 Alpha virt. eigenvalues --    0.77226   0.77401   0.77927   0.77981   0.78124
 Alpha virt. eigenvalues --    0.78258   0.78956   0.79042   0.79065   0.79212
 Alpha virt. eigenvalues --    0.79530   0.79807   0.79966   0.80797   0.80964
 Alpha virt. eigenvalues --    0.81272   0.81683   0.81894   0.81927   0.82122
 Alpha virt. eigenvalues --    0.82620   0.82786   0.83355   0.83527   0.83744
 Alpha virt. eigenvalues --    0.84134   0.84356   0.84541   0.85115   0.85409
 Alpha virt. eigenvalues --    0.85542   0.85983   0.86046   0.86162   0.87543
 Alpha virt. eigenvalues --    0.87953   0.88143   0.88805   0.89198   0.89237
 Alpha virt. eigenvalues --    0.89773   0.90288   0.90400   0.90566   0.90869
 Alpha virt. eigenvalues --    0.91321   0.91353   0.92074   0.92129   0.92850
 Alpha virt. eigenvalues --    0.93108   0.93304   0.93410   0.94510   0.94586
 Alpha virt. eigenvalues --    0.94737   0.95105   0.95230   0.95300   0.95486
 Alpha virt. eigenvalues --    0.95640   0.95864   0.96416   0.96454   0.96665
 Alpha virt. eigenvalues --    0.96714   0.97047   0.97586   0.97858   0.98001
 Alpha virt. eigenvalues --    0.98353   0.98589   0.98737   0.98841   0.99058
 Alpha virt. eigenvalues --    0.99258   0.99813   0.99999   1.00348   1.00663
 Alpha virt. eigenvalues --    1.00866   1.01082   1.01504   1.01625   1.01737
 Alpha virt. eigenvalues --    1.02401   1.02570   1.02669   1.02846   1.02980
 Alpha virt. eigenvalues --    1.03627   1.03924   1.04031   1.04319   1.04426
 Alpha virt. eigenvalues --    1.04569   1.04936   1.05113   1.05227   1.05543
 Alpha virt. eigenvalues --    1.06077   1.06169   1.06420   1.06770   1.06910
 Alpha virt. eigenvalues --    1.06983   1.07188   1.07410   1.07472   1.08261
 Alpha virt. eigenvalues --    1.08527   1.08656   1.09279   1.09360   1.09573
 Alpha virt. eigenvalues --    1.09782   1.10263   1.10372   1.10501   1.11700
 Alpha virt. eigenvalues --    1.11913   1.12089   1.12310   1.12460   1.12847
 Alpha virt. eigenvalues --    1.13036   1.13298   1.13791   1.14260   1.14442
 Alpha virt. eigenvalues --    1.14580   1.15329   1.15622   1.15970   1.16425
 Alpha virt. eigenvalues --    1.16486   1.16610   1.17566   1.17643   1.18356
 Alpha virt. eigenvalues --    1.18650   1.18699   1.19025   1.19171   1.19306
 Alpha virt. eigenvalues --    1.19631   1.20326   1.20391   1.21294   1.22079
 Alpha virt. eigenvalues --    1.22104   1.22366   1.22450   1.23195   1.23314
 Alpha virt. eigenvalues --    1.23719   1.23966   1.24617   1.24682   1.24862
 Alpha virt. eigenvalues --    1.25507   1.25528   1.26746   1.27804   1.28007
 Alpha virt. eigenvalues --    1.28356   1.28394   1.28552   1.28732   1.29164
 Alpha virt. eigenvalues --    1.29365   1.29665   1.30070   1.30283   1.30731
 Alpha virt. eigenvalues --    1.31111   1.31408   1.31498   1.31979   1.32944
 Alpha virt. eigenvalues --    1.33010   1.33279   1.33837   1.33989   1.34595
[...]
 IDIUse=1 WtCom= 1.00D+00 WtEn= 0.00D+00
 Coeff-Com:  0.100D+01
 Coeff:      0.100D+01
 Gap=     0.207 Goal=   None    Shift=    0.000
 RMSDP=3.58D-09 MaxDP=1.58D-07              OVMax= 5.58D-07

 Error on total polarization charges =  0.01449
 SCF Done:  E(RB3LYP) =  -922.829234451     A.U. after    1 cycles
            NFock=  1  Conv=0.36D-08     -V/T= 2.0061
 KE= 9.171977317970D+02 PE=-5.350395618884D+03 EE= 1.909146978864D+03
 Leave Link  502 at Sat Feb 23 18:47:12 2019, MaxMem=   268435456 cpu:           28038.0 elap:            3511.4
 (Enter /home/apps/g16/g16/l801.exe)
 DoSCS=F DFT=T ScalE2(SS,OS)=  1.000000  1.000000
 Range of M.O.s used for correlation:     1  1371
 NBasis=  1380 NAE=    75 NBE=    75 NFC=     0 NFV=     0
 NROrb=   1371 NOA=    75 NOB=    75 NVA=  1296 NVB=  1296

 **** Warning!!: The largest alpha MO coefficient is  0.94589015D+02

 Leave Link  801 at Sat Feb 23 18:47:12 2019, MaxMem=   268435456 cpu:               1.0 elap:               0.1
 (Enter /home/apps/g16/g16/l1101.exe)
 Using compressed storage, NAtomX=    39.
 Will process     40 centers per pass.
 PrsmSu:  requested number of processors reduced to:   1 ShMem   1 Linda.
 R6Disp: Adding Grimme-D3 dispersion energy 1st derivatives to the gradient.
 Leave Link 1101 at Sat Feb 23 18:47:33 2019, MaxMem=   268435456 cpu:             125.0 elap:              20.9
 (Enter /home/apps/g16/g16/l1102.exe)
 Symmetrizing basis deriv contribution to polar:
 IMax=3 JMax=2 DiffMx= 0.00D+00
 Leave Link 1102 at Sat Feb 23 18:47:35 2019, MaxMem=   268435456 cpu:               5.0 elap:               1.0
 (Enter /home/apps/g16/g16/l1110.exe)
 Forming Gx(P) for the SCF density, NAtomX=    39.
 Integral derivatives from FoFJK, PRISM(SPDF).
 Do as many integral derivatives as possible in FoFJK.
 G2DrvN: MDV=     268432590.
 G2DrvN: will do     5 centers at a time, making    8 passes.
 G2DrvN:  IPasSy=1 do centers    0 through    4.
 Calling FoFCou, ICntrl=  3107 FMM=F I1Cent=   0 AccDes= 0.00D+00.
 FoFJK:  IHMeth= 1 ICntrl=    3107 DoSepK=F KAlg= 0 I1Cent=           0 FoldK=F
 IRaf=         0 NMat=       1 IRICut=       1 DoRegI=T DoRafI=F ISym2E= 0 IDoP0=0 IntGTp=1.
 FoFCou: FMM=F IPFlag=           0 FMFlag=      100000 FMFlg1=           0
         NFxFlg=           0 DoJE=F BraDBF=F KetDBF=F FulRan=T
         wScrn=  0.000000 ICntrl=      3107 IOpCl=  0 I1Cent=           0 NGrid=           0
         NMat0=    1 NMatS0=      1 NMatT0=    0 NMatD0=    1 NMtDS0=    0 NMtDT0=    0
 Symmetry not used in FoFCou.
 G2DrvN:  IPasSy=1 do centers    5 through    9.
 Calling FoFCou, ICntrl=  3107 FMM=F I1Cent=   0 AccDes= 0.00D+00.
 G2DrvN:  IPasSy=1 do centers   10 through   14.
 Calling FoFCou, ICntrl=  3107 FMM=F I1Cent=   0 AccDes= 0.00D+00.
 G2DrvN:  IPasSy=1 do centers   15 through   19.
 Calling FoFCou, ICntrl=  3107 FMM=F I1Cent=   0 AccDes= 0.00D+00.
 G2DrvN:  IPasSy=1 do centers   20 through   24.
 Calling FoFCou, ICntrl=  3107 FMM=F I1Cent=   0 AccDes= 0.00D+00.
 G2DrvN:  IPasSy=1 do centers   25 through   29.
 Calling FoFCou, ICntrl=  3107 FMM=F I1Cent=   0 AccDes= 0.00D+00.
 G2DrvN:  IPasSy=1 do centers   30 through   34.
 Calling FoFCou, ICntrl=  3107 FMM=F I1Cent=   0 AccDes= 0.00D+00.
 G2DrvN:  IPasSy=1 do centers   35 through   39.
 Calling FoFCou, ICntrl=  3107 FMM=F I1Cent=   0 AccDes= 0.00D+00.
 NEqPCM:  Using equilibrium solvation (IEInf=0, Eps=   2.2280, EpsInf=   2.1319)
 G2PCM: DoFxE=T DoFxN=T DoGrad=T DoDP/DQ/DG/TGxP=FFFF NFrqRd=   0 IEInf=0 SqF1=F DoCFld=F IF1Alg=4.
 GePol: Maximum number of non-zero 1st derivatives   =     200
 End of G2Drv F.D. properties file   721 does not exist.
 End of G2Drv F.D. properties file   722 does not exist.
 End of G2Drv F.D. properties file   788 does not exist.
 Leave Link 1110 at Mon Feb 25 02:57:26 2019, MaxMem=   268435456 cpu:          925088.0 elap:          115791.2
 (Enter /home/apps/g16/g16/l1002.exe)
 Minotr:  Closed shell wavefunction.
          IDoAtm=111111111111111111111111111111111111111
 NEqPCM:  Using equilibrium solvation (IEInf=0, Eps=   2.2280, EpsInf=   2.1319)
          Direct CPHF calculation.
          Differentiating once with respect to electric field.
                with respect to dipole field.
          Differentiating once with respect to nuclear coordinates.
          Requested convergence is 1.0D-08 RMS, and 1.0D-07 maximum.
          Secondary convergence is 1.0D-12 RMS, and 1.0D-12 maximum.
          NewPWx=T KeepS1=F KeepF1=F KeepIn=T MapXYZ=F SortEE=F KeepMc=T.
        12169 words used for storage of precomputed grid.
 Two-electron integrals replicated using symmetry.
          MDV=     268435456 using IRadAn=       1.
          Solving linear equations simultaneously, MaxMat=     384.
 FoF2E skips out because all densities are zero.
 CalDSu exits because no D1Ps are significant.
 FoFJK:  IHMeth= 1 ICntrl=       0 DoSepK=F KAlg= 0 I1Cent=           0 FoldK=F
 IRaf= 870000000 NMat=       8 IRICut=       1 DoRegI=T DoRafI=F ISym2E= 2 IDoP0=0 IntGTp=1.
          There are   120 degrees of freedom in the 1st order CPHF.  IDoFFX=6 NUNeed=     3.
    120 vectors produced by pass  0 Test12= 9.72D-14 1.00D-09 XBig12= 3.00D+02 5.49D+00.
 AX will form     8 AO Fock derivatives at one time.
    120 vectors produced by pass  1 Test12= 9.72D-14 1.00D-09 XBig12= 6.68D+01 8.79D-01.
    117 vectors produced by pass  2 Test12= 9.72D-14 1.00D-09 XBig12= 4.76D-01 6.80D-02.
    117 vectors produced by pass  3 Test12= 9.72D-14 1.00D-09 XBig12= 2.94D-03 3.09D-03.
    117 vectors produced by pass  4 Test12= 9.72D-14 1.00D-09 XBig12= 9.48D-06 2.24D-04.
    117 vectors produced by pass  5 Test12= 9.72D-14 1.00D-09 XBig12= 1.84D-08 1.07D-05.
    116 vectors produced by pass  6 Test12= 9.72D-14 1.00D-09 XBig12= 2.98D-11 4.69D-07.
    116 vectors produced by pass  7 Test12= 9.72D-14 1.00D-09 XBig12= 9.52D-13 5.00D-08.
    116 vectors produced by pass  8 Test12= 9.72D-14 1.00D-09 XBig12= 7.18D-13 4.50D-08.
    115 vectors produced by pass  9 Test12= 9.72D-14 1.00D-09 XBig12= 7.73D-13 4.20D-08.
    113 vectors produced by pass 10 Test12= 9.72D-14 1.00D-09 XBig12= 4.37D-13 2.67D-08.
    109 vectors produced by pass 11 Test12= 9.72D-14 1.00D-09 XBig12= 3.44D-13 2.20D-08.
    107 vectors produced by pass 12 Test12= 9.72D-14 1.00D-09 XBig12= 3.77D-13 2.28D-08.
    103 vectors produced by pass 13 Test12= 9.72D-14 1.00D-09 XBig12= 3.04D-13 1.84D-08.
    101 vectors produced by pass 14 Test12= 9.72D-14 1.00D-09 XBig12= 2.90D-13 2.05D-08.
     98 vectors produced by pass 15 Test12= 9.72D-14 1.00D-09 XBig12= 2.19D-13 1.46D-08.
     97 vectors produced by pass 16 Test12= 9.72D-14 1.00D-09 XBig12= 2.12D-13 1.48D-08.
     97 vectors produced by pass 17 Test12= 9.72D-14 1.00D-09 XBig12= 1.81D-13 1.35D-08.
     97 vectors produced by pass 18 Test12= 9.72D-14 1.00D-09 XBig12= 2.21D-13 1.38D-08.
     96 vectors produced by pass 19 Test12= 9.72D-14 1.00D-09 XBig12= 1.93D-13 1.38D-08.
     93 vectors produced by pass 20 Test12= 9.72D-14 1.00D-09 XBig12= 1.57D-13 1.16D-08.
     88 vectors produced by pass 21 Test12= 9.72D-14 1.00D-09 XBig12= 1.30D-13 1.02D-08.
     86 vectors produced by pass 22 Test12= 9.72D-14 1.00D-09 XBig12= 1.38D-13 9.90D-09.
     82 vectors produced by pass 23 Test12= 9.72D-14 1.00D-09 XBig12= 1.51D-13 1.12D-08.
     82 vectors produced by pass 24 Test12= 9.72D-14 1.00D-09 XBig12= 1.67D-13 1.15D-08.
     80 vectors produced by pass 25 Test12= 9.72D-14 1.00D-09 XBig12= 1.55D-13 1.12D-08.
     78 vectors produced by pass 26 Test12= 9.72D-14 1.00D-09 XBig12= 1.42D-13 9.15D-09.
     75 vectors produced by pass 27 Test12= 9.72D-14 1.00D-09 XBig12= 1.26D-13 9.57D-09.
     75 vectors produced by pass 28 Test12= 9.72D-14 1.00D-09 XBig12= 1.41D-13 1.19D-08.
     70 vectors produced by pass 29 Test12= 9.72D-14 1.00D-09 XBig12= 8.48D-14 9.05D-09.
     68 vectors produced by pass 30 Test12= 9.72D-14 1.00D-09 XBig12= 1.78D-13 1.05D-08.
     66 vectors produced by pass 31 Test12= 9.72D-14 1.00D-09 XBig12= 1.22D-13 9.24D-09.
     66 vectors produced by pass 32 Test12= 9.72D-14 1.00D-09 XBig12= 9.98D-14 9.87D-09.
     64 vectors produced by pass 33 Test12= 9.72D-14 1.00D-09 XBig12= 1.06D-13 8.10D-09.
     61 vectors produced by pass 34 Test12= 9.72D-14 1.00D-09 XBig12= 9.79D-14 8.42D-09.
     58 vectors produced by pass 35 Test12= 9.72D-14 1.00D-09 XBig12= 1.03D-13 8.80D-09.
     58 vectors produced by pass 36 Test12= 9.72D-14 1.00D-09 XBig12= 8.31D-14 9.63D-09.
     57 vectors produced by pass 37 Test12= 9.72D-14 1.00D-09 XBig12= 7.48D-14 6.30D-09.
     55 vectors produced by pass 38 Test12= 9.72D-14 1.00D-09 XBig12= 6.52D-14 7.08D-09.
     55 vectors produced by pass 39 Test12= 9.72D-14 1.00D-09 XBig12= 6.70D-14 6.51D-09.
     55 vectors produced by pass 40 Test12= 9.72D-14 1.00D-09 XBig12= 7.88D-14 7.57D-09.
     55 vectors produced by pass 41 Test12= 9.72D-14 1.00D-09 XBig12= 6.51D-14 6.81D-09.
     55 vectors produced by pass 42 Test12= 9.72D-14 1.00D-09 XBig12= 6.82D-14 6.29D-09.
     55 vectors produced by pass 43 Test12= 9.72D-14 1.00D-09 XBig12= 5.77D-14 5.90D-09.
     55 vectors produced by pass 44 Test12= 9.72D-14 1.00D-09 XBig12= 6.17D-14 6.69D-09.
     55 vectors produced by pass 45 Test12= 9.72D-14 1.00D-09 XBig12= 5.89D-14 6.73D-09.
     54 vectors produced by pass 46 Test12= 9.72D-14 1.00D-09 XBig12= 6.15D-14 6.13D-09.
     54 vectors produced by pass 47 Test12= 9.72D-14 1.00D-09 XBig12= 5.03D-14 5.94D-09.
     54 vectors produced by pass 48 Test12= 9.72D-14 1.00D-09 XBig12= 5.27D-14 6.16D-09.
     54 vectors produced by pass 49 Test12= 9.72D-14 1.00D-09 XBig12= 6.11D-14 6.95D-09.
     53 vectors produced by pass 50 Test12= 9.72D-14 1.00D-09 XBig12= 3.98D-14 5.31D-09.
     51 vectors produced by pass 51 Test12= 9.72D-14 1.00D-09 XBig12= 4.17D-14 5.27D-09.
     50 vectors produced by pass 52 Test12= 9.72D-14 1.00D-09 XBig12= 3.71D-14 5.47D-09.
     50 vectors produced by pass 53 Test12= 9.72D-14 1.00D-09 XBig12= 4.60D-14 6.52D-09.
     49 vectors produced by pass 54 Test12= 9.72D-14 1.00D-09 XBig12= 4.11D-14 5.43D-09.
     47 vectors produced by pass 55 Test12= 9.72D-14 1.00D-09 XBig12= 4.05D-14 5.94D-09.
     46 vectors produced by pass 56 Test12= 9.72D-14 1.00D-09 XBig12= 2.92D-14 4.63D-09.
     46 vectors produced by pass 57 Test12= 9.72D-14 1.00D-09 XBig12= 4.34D-14 5.16D-09.
     46 vectors produced by pass 58 Test12= 9.72D-14 1.00D-09 XBig12= 3.91D-14 5.11D-09.
     46 vectors produced by pass 59 Test12= 9.72D-14 1.00D-09 XBig12= 4.33D-14 5.46D-09.
     45 vectors produced by pass 60 Test12= 9.72D-14 1.00D-09 XBig12= 3.27D-14 5.09D-09.
     42 vectors produced by pass 61 Test12= 9.72D-14 1.00D-09 XBig12= 3.23D-14 4.46D-09.
     42 vectors produced by pass 62 Test12= 9.72D-14 1.00D-09 XBig12= 3.19D-14 4.76D-09.
     42 vectors produced by pass 63 Test12= 9.72D-14 1.00D-09 XBig12= 2.56D-14 3.97D-09.
     42 vectors produced by pass 64 Test12= 9.72D-14 1.00D-09 XBig12= 2.50D-14 4.13D-09.
     42 vectors produced by pass 65 Test12= 9.72D-14 1.00D-09 XBig12= 2.61D-14 4.06D-09.
     42 vectors produced by pass 66 Test12= 9.72D-14 1.00D-09 XBig12= 3.07D-14 4.22D-09.
     42 vectors produced by pass 67 Test12= 9.72D-14 1.00D-09 XBig12= 2.73D-14 4.22D-09.
     42 vectors produced by pass 68 Test12= 9.72D-14 1.00D-09 XBig12= 2.53D-14 4.12D-09.
     42 vectors produced by pass 69 Test12= 9.72D-14 1.00D-09 XBig12= 2.09D-14 3.82D-09.
     42 vectors produced by pass 70 Test12= 9.72D-14 1.00D-09 XBig12= 2.29D-14 3.78D-09.
     40 vectors produced by pass 71 Test12= 9.72D-14 1.00D-09 XBig12= 1.65D-14 3.14D-09.
     38 vectors produced by pass 72 Test12= 9.72D-14 1.00D-09 XBig12= 2.06D-14 4.10D-09.
     38 vectors produced by pass 73 Test12= 9.72D-14 1.00D-09 XBig12= 2.29D-14 4.46D-09.
     36 vectors produced by pass 74 Test12= 9.72D-14 1.00D-09 XBig12= 2.15D-14 3.57D-09.
     33 vectors produced by pass 75 Test12= 9.72D-14 1.00D-09 XBig12= 1.38D-14 3.07D-09.
     33 vectors produced by pass 76 Test12= 9.72D-14 1.00D-09 XBig12= 2.29D-14 3.89D-09.
     33 vectors produced by pass 77 Test12= 9.72D-14 1.00D-09 XBig12= 2.15D-14 3.42D-09.
     33 vectors produced by pass 78 Test12= 9.72D-14 1.00D-09 XBig12= 1.51D-14 3.07D-09.
     33 vectors produced by pass 79 Test12= 9.72D-14 1.00D-09 XBig12= 2.17D-14 4.61D-09.
     30 vectors produced by pass 80 Test12= 9.72D-14 1.00D-09 XBig12= 1.83D-14 3.38D-09.
     30 vectors produced by pass 81 Test12= 9.72D-14 1.00D-09 XBig12= 1.95D-14 3.29D-09.
     30 vectors produced by pass 82 Test12= 9.72D-14 1.00D-09 XBig12= 1.79D-14 3.57D-09.
     30 vectors produced by pass 83 Test12= 9.72D-14 1.00D-09 XBig12= 1.86D-14 3.37D-09.
     30 vectors produced by pass 84 Test12= 9.72D-14 1.00D-09 XBig12= 1.84D-14 3.13D-09.
     30 vectors produced by pass 85 Test12= 9.72D-14 1.00D-09 XBig12= 1.91D-14 3.04D-09.
     30 vectors produced by pass 86 Test12= 9.72D-14 1.00D-09 XBig12= 2.29D-14 3.65D-09.
     27 vectors produced by pass 87 Test12= 9.72D-14 1.00D-09 XBig12= 1.66D-14 2.82D-09.
     27 vectors produced by pass 88 Test12= 9.72D-14 1.00D-09 XBig12= 1.46D-14 2.90D-09.
     27 vectors produced by pass 89 Test12= 9.72D-14 1.00D-09 XBig12= 1.56D-14 2.98D-09.
     23 vectors produced by pass 90 Test12= 9.72D-14 1.00D-09 XBig12= 1.43D-14 2.58D-09.
     23 vectors produced by pass 91 Test12= 9.72D-14 1.00D-09 XBig12= 1.51D-14 3.21D-09.
     23 vectors produced by pass 92 Test12= 9.72D-14 1.00D-09 XBig12= 1.46D-14 2.75D-09.
     22 vectors produced by pass 93 Test12= 9.72D-14 1.00D-09 XBig12= 1.17D-14 2.39D-09.
     21 vectors produced by pass 94 Test12= 9.72D-14 1.00D-09 XBig12= 1.27D-14 2.78D-09.
     19 vectors produced by pass 95 Test12= 9.72D-14 1.00D-09 XBig12= 1.04D-14 2.70D-09.
     19 vectors produced by pass 96 Test12= 9.72D-14 1.00D-09 XBig12= 1.06D-14 2.68D-09.
     19 vectors produced by pass 97 Test12= 9.72D-14 1.00D-09 XBig12= 1.38D-14 2.49D-09.
     19 vectors produced by pass 98 Test12= 9.72D-14 1.00D-09 XBig12= 1.14D-14 2.48D-09.
     19 vectors produced by pass 99 Test12= 9.72D-14 1.00D-09 XBig12= 1.29D-14 2.77D-09.
     19 vectors produced by pass100 Test12= 9.72D-14 1.00D-09 XBig12= 1.64D-14 2.80D-09.
     19 vectors produced by pass101 Test12= 9.72D-14 1.00D-09 XBig12= 1.04D-14 2.28D-09.
     19 vectors produced by pass102 Test12= 9.72D-14 1.00D-09 XBig12= 1.00D-14 2.34D-09.
     19 vectors produced by pass103 Test12= 9.72D-14 1.00D-09 XBig12= 1.08D-14 2.35D-09.
     19 vectors produced by pass104 Test12= 9.72D-14 1.00D-09 XBig12= 1.18D-14 2.90D-09.
     18 vectors produced by pass105 Test12= 9.72D-14 1.00D-09 XBig12= 7.25D-15 2.02D-09.
     18 vectors produced by pass106 Test12= 9.72D-14 1.00D-09 XBig12= 1.04D-14 2.57D-09.
     18 vectors produced by pass107 Test12= 9.72D-14 1.00D-09 XBig12= 1.72D-14 2.90D-09.
     18 vectors produced by pass108 Test12= 9.72D-14 1.00D-09 XBig12= 9.43D-15 2.48D-09.
     17 vectors produced by pass109 Test12= 9.72D-14 1.00D-09 XBig12= 1.10D-14 2.51D-09.
     17 vectors produced by pass110 Test12= 9.72D-14 1.00D-09 XBig12= 9.19D-15 2.60D-09.
     15 vectors produced by pass111 Test12= 9.72D-14 1.00D-09 XBig12= 1.23D-14 2.77D-09.
     15 vectors produced by pass112 Test12= 9.72D-14 1.00D-09 XBig12= 1.02D-14 2.60D-09.
     15 vectors produced by pass113 Test12= 9.72D-14 1.00D-09 XBig12= 9.45D-15 2.56D-09.
     15 vectors produced by pass114 Test12= 9.72D-14 1.00D-09 XBig12= 1.11D-14 2.40D-09.
     10 vectors produced by pass115 Test12= 9.72D-14 1.00D-09 XBig12= 8.57D-15 2.58D-09.
      6 vectors produced by pass116 Test12= 9.72D-14 1.00D-09 XBig12= 3.64D-15 1.46D-09.
      6 vectors produced by pass117 Test12= 9.72D-14 1.00D-09 XBig12= 9.17D-15 2.85D-09.
      6 vectors produced by pass118 Test12= 9.72D-14 1.00D-09 XBig12= 7.25D-15 2.10D-09.
      6 vectors produced by pass119 Test12= 9.72D-14 1.00D-09 XBig12= 8.59D-15 2.20D-09.
      6 vectors produced by pass120 Test12= 9.72D-14 1.00D-09 XBig12= 7.58D-15 1.86D-09.
      6 vectors produced by pass121 Test12= 9.72D-14 1.00D-09 XBig12= 5.74D-15 2.05D-09.
      6 vectors produced by pass122 Test12= 9.72D-14 1.00D-09 XBig12= 5.33D-15 1.84D-09.
      6 vectors produced by pass123 Test12= 9.72D-14 1.00D-09 XBig12= 8.09D-15 2.06D-09.
      6 vectors produced by pass124 Test12= 9.72D-14 1.00D-09 XBig12= 7.67D-15 2.27D-09.
      6 vectors produced by pass125 Test12= 9.72D-14 1.00D-09 XBig12= 5.62D-15 1.88D-09.
      6 vectors produced by pass126 Test12= 9.72D-14 1.00D-09 XBig12= 9.45D-15 2.57D-09.
      6 vectors produced by pass127 Test12= 9.72D-14 1.00D-09 XBig12= 6.37D-15 2.20D-09.
      6 vectors produced by pass128 Test12= 9.72D-14 1.00D-09 XBig12= 7.29D-15 2.16D-09.
      6 vectors produced by pass129 Test12= 9.72D-14 1.00D-09 XBig12= 7.58D-15 2.44D-09.
      6 vectors produced by pass130 Test12= 9.72D-14 1.00D-09 XBig12= 8.72D-15 2.16D-09.
      6 vectors produced by pass131 Test12= 9.72D-14 1.00D-09 XBig12= 7.37D-15 2.33D-09.
      6 vectors produced by pass132 Test12= 9.72D-14 1.00D-09 XBig12= 7.10D-15 1.99D-09.
      6 vectors produced by pass133 Test12= 9.72D-14 1.00D-09 XBig12= 6.22D-15 2.30D-09.
      6 vectors produced by pass134 Test12= 9.72D-14 1.00D-09 XBig12= 6.98D-15 2.03D-09.
      6 vectors produced by pass135 Test12= 9.72D-14 1.00D-09 XBig12= 8.82D-15 2.23D-09.
      6 vectors produced by pass136 Test12= 9.72D-14 1.00D-09 XBig12= 5.70D-15 1.76D-09.
      6 vectors produced by pass137 Test12= 9.72D-14 1.00D-09 XBig12= 6.74D-15 1.83D-09.
      6 vectors produced by pass138 Test12= 9.72D-14 1.00D-09 XBig12= 9.23D-15 2.36D-09.
      6 vectors produced by pass139 Test12= 9.72D-14 1.00D-09 XBig12= 7.62D-15 1.97D-09.
      6 vectors produced by pass140 Test12= 9.72D-14 1.00D-09 XBig12= 8.53D-15 2.34D-09.
      6 vectors produced by pass141 Test12= 9.72D-14 1.00D-09 XBig12= 8.06D-15 2.14D-09.
      6 vectors produced by pass142 Test12= 9.72D-14 1.00D-09 XBig12= 8.11D-15 1.99D-09.
      5 vectors produced by pass143 Test12= 9.72D-14 1.00D-09 XBig12= 5.80D-15 1.65D-09.
      5 vectors produced by pass144 Test12= 9.72D-14 1.00D-09 XBig12= 9.78D-15 2.06D-09.
      4 vectors produced by pass145 Test12= 9.72D-14 1.00D-09 XBig12= 5.65D-15 1.61D-09.
      4 vectors produced by pass146 Test12= 9.72D-14 1.00D-09 XBig12= 6.31D-15 1.76D-09.
      4 vectors produced by pass147 Test12= 9.72D-14 1.00D-09 XBig12= 1.11D-14 2.28D-09.
      4 vectors produced by pass148 Test12= 9.72D-14 1.00D-09 XBig12= 9.20D-15 2.16D-09.
      4 vectors produced by pass149 Test12= 9.72D-14 1.00D-09 XBig12= 7.09D-15 1.98D-09.
      4 vectors produced by pass150 Test12= 9.72D-14 1.00D-09 XBig12= 6.47D-15 1.91D-09.
      3 vectors produced by pass151 Test12= 9.72D-14 1.00D-09 XBig12= 4.52D-15 1.59D-09.
      3 vectors produced by pass152 Test12= 9.72D-14 1.00D-09 XBig12= 8.83D-15 2.45D-09.
      3 vectors produced by pass153 Test12= 9.72D-14 1.00D-09 XBig12= 1.10D-14 2.30D-09.
      3 vectors produced by pass154 Test12= 9.72D-14 1.00D-09 XBig12= 9.76D-15 2.15D-09.
      3 vectors produced by pass155 Test12= 9.72D-14 1.00D-09 XBig12= 6.70D-15 1.81D-09.
      3 vectors produced by pass156 Test12= 9.72D-14 1.00D-09 XBig12= 5.35D-15 1.61D-09.
      3 vectors produced by pass157 Test12= 9.72D-14 1.00D-09 XBig12= 6.81D-15 1.84D-09.
      3 vectors produced by pass158 Test12= 9.72D-14 1.00D-09 XBig12= 9.79D-15 2.25D-09.
      2 vectors produced by pass159 Test12= 9.72D-14 1.00D-09 XBig12= 3.82D-15 1.50D-09.
 InvSVY:  IOpt=1 It=  1 EMax= 1.99D-13
 Solved reduced A of dimension  6409 with   120 vectors.
 FullF1:  Do perturbations      1 to       3.
 Isotropic polarizability for W=    0.000000      254.57 Bohr**3.
 End of Minotr F.D. properties file   721 does not exist.
 End of Minotr F.D. properties file   722 does not exist.
 End of Minotr F.D. properties file   788 does not exist.
 Leave Link 1002 at Tue Apr 30 22:48:23 2019, MaxMem=   268435456 cpu:        44723164.0 elap:         5597456.5
 Internal input file was deleted!
 Error termination via Lnk1e at Tue Apr 30 22:48:23 2019.
