 Entering Gaussian System, Link 0=g16
 Input=fenol_b3lypd3_n07d_ccl4_of.com
 Output=fenol_b3lypd3_n07d_ccl4_of.log
 AtFile(1): N07D_B3LYP.gbs
             -H 0
             6-31G
             P   1 1.00       0.000000000000
                  0.7500000000D+00  0.10000000D+01
             ****
             -He 0
             6-31G**
             ****
             -Li 0
             6-31+G**
             ****
             -Be 0
             6-31+G**
             ****
             -B 0
             6-31G
             P   1 1.00       0.000000000000
                  0.3500000000D-01  0.1000000000D+01
             D   1 1.00       0.000000000000
                  0.3430000000D+00  0.1000000000D+01
             ****
             -C 0
             6-31G
             S   1 1.00       0.000000000000
                  0.7500000000D+01  0.1000000000D+01
             P   1 1.00       0.000000000000
                  0.5000000000D-01  0.1000000000D+01
             D   1 1.00       0.000000000000
                  0.8200000000D+00  0.1000000000D+01
             ****
             -N 0
             6-31G
             S   1 1.00       0.000000000000
                  0.1260000000D+02  0.1000000000D+01
             P   1 1.00       0.000000000000
                  0.5300000000D-01  0.1000000000D+01
             D   1 1.00       0.000000000000
                  0.1015000000D+01  0.1000000000D+01
             ****
             -O 0
             6-31G
             S   1 1.00
                  0.1510000000D+02  0.1000000000D+01
             P   1 1.00       0.000000000000
                  0.6500000000D-01  0.1000000000D+01
             D   1 1.00        0.000000000000
                  0.1190000000D+01  0.1000000000D+01
             D   1 1.00        0.000000000000
                  0.1800000000D+00  0.1000000000D+01
             ****
             -F 0
             6-31G
             S   1 1.00
                  0.1830000000D+02  0.1000000000D+01
             P   1 1.00       0.000000000000
                  0.8300000000D-01  0.1000000000D+01
             D   1 1.00       0.000000000000
                  1.3700000000D+00  0.1000000000D+01
             D   1 1.00       0.000000000000
                  0.2300000000D+00  0.1000000000D+01
             ****
             -Ne 0
             6-31+G**
             ****
             -Na 0
             6-31+G**
             ****
             -Mg 0
             6-31+G**
             ****
             -Al 0
             6-31G
             S   1 1.00      0.000000000000
                  0.3100000000D+01  0.1000000000D+01
             P   1 1.00      0.000000000000
                  0.1500000000D-01  0.1000000000D+01
             D   1 1.00      0.000000000000
                  0.1890000000D+00  0.1000000000D+01
             ****
             -Si 0
             6-31G
             S   1 1.0
                  0.3600000000D+01  0.1000000000D+01
             P   1 1.00       0.000000000000
                  0.3300000000D-01  0.1000000000D+01
             D   1 1.0        0.000000000000
                  0.2750000000D+00  0.1000000000D+01
             ****
             -P  0
             6-31G
             S   1 1.00       0.000000000000
                  0.5500000000D+01  0.1000000000D+01
             P   1 1.00       0.000000000000
                  0.3500000000D-01  0.1000000000D+01
             D   1 1.00       0.000000000000
                  0.3730000000D+00  0.1000000000D+01
             ****
             -S  0
             6-31G
             S   1 1.00       0.000000000000
                  0.8000000000D+01  0.1000000000D+01
             P   1 1.00        0.000000000000
                  0.4100000000D-01  0.1000000000D+01
             D   1 1.00        0.000000000000
                  0.4790000000D+00  0.1000000000D+01
             ****
            -Cl 0
             6-31G
             S   1 1.00      0.000000000000
                  0.8500000000D+01  0.1000000000D+01
             P   1 1.00      0.000000000000
                  0.4800000000D-01  0.1000000000D+01
             D   1 1.00      0.000000000000
                  0.6000000000D+00  0.1000000000D+01
             D   1 1.00       0.000000000000
                  0.1960000000D+00  0.1000000000D+01
             ****
            -Br 0
             S   3 1.00       0.000000000000
                  0.4721881000D+01  0.1749732514D+00
                  0.2257555000D+01 -0.7074172290D+00
                  0.3896080000D+00  0.1258999543D+01
             S   1 1.00       0.000000000000
                  0.1471340000D+00  0.1000000000D+01
             P   3 1.00       0.000000000000
                  0.1896942000D+01 -0.2464576731D+00
                  0.9108990000D+00  0.3623179892D+00
                  0.3168550000D+00  0.8338469725D+00
             P   1 1.00       0.000000000000
                  0.1095030000D+00  0.1000000000D+01
             P   1 1.00       0.000000000000
                  0.3609700000D-01  0.1000000000D+01
             D   1 1.00
                  0.4750000000D+00  0.1000000000D+01
             D   1 1.00
                  0.1280000000D+00  0.1000000000D+01
             ****
            -I   0
             S   3 1.00       0.000000000000
                  0.2122765000D+01  0.2063429899D+01
                  0.1770481000D+01 -0.2869526473D+01
                  0.3130840000D+00  0.1404747074D+01
             S   1 1.00       0.000000000000
                  0.1320000000D+00  0.1000000000D+01
             P   3 1.00       0.000000000000
                  0.2432887000D+01  0.7732753148D+00
                  0.2137249000D+01 -0.1020833156D+01
                  0.3145460000D+00  0.1095666871D+01
             P   1 1.00       0.000000000000
                  0.1049450000D+00  0.1000000000D+01
             P   1 1.00       0.000000000000
                  0.3264100000D-01  0.1000000000D+01
             D   1 1.00
                  0.300000000          1.00000000
             D   1 1.00
                  0.090000000          1.00000000
             ****
             -Zn 0
             SP   6 1.00       0.000000000000
                  0.6936492000D+02 -0.4440098182D-02 -0.7689261805D-02
                  0.2362082000D+02  0.7505253308D-01 -0.2997981924D-01
                  0.1018471000D+02  0.2533111104D+00  0.7082410821D-01
                  0.4334082000D+01 -0.2881897118D+00  0.4046140897D+00
                  0.1810918000D+01 -0.7267052298D+00  0.4882324876D+00
                  0.7148410000D+00 -0.2133439088D+00  0.1751969956D+00
             SP   3 1.00       0.000000000000
                  0.2823842000D+01  0.4898545031D-01 -0.1586762981D+00
                  0.1039543000D+01  0.2592794075D+00  0.8379326898D-01
                  0.1432640000D+00 -0.1115711463D+01  0.9840546881D+00
             SP   1 1.00       0.000000000000
                  0.4929600000D-01  0.1000000000D+01  0.1000000000D+01
             S    1 1.00       0.000000000000
                  0.1620000000D+00  0.1000000000D+01
             D    3 1.00       0.000000000000
                  0.3370764000D+02  0.9262647815D-01
                  0.9061106000D+01  0.4002979920D+00
                  0.2738383000D+01  0.6896607863D+00
             D    1 1.00
                  0.2440000000D+01  0.1000000000D+01
             D    1 1.00       0.000000000000
                  0.7302940000D+00  0.1000000000D+01
             D    1 1.00       0.000000000000
                  0.1620000000D+00  0.1000000000D+01
             ****
             -Br,-I,-Zn 0
             SDDALL
            ****
 Initial command:
 /home/apps/g16/g16/l1.exe "/scratch/gaussian/jpablo/Gau-22244.inp" -scrdir="/scratch/gaussian/jpablo/"
 Entering Link 1 = /home/apps/g16/g16/l1.exe PID=     22245.
  
 Copyright (c) 1988,1990,1992,1993,1995,1998,2003,2009,2016,
            Gaussian, Inc.  All Rights Reserved.
  
 This is part of the Gaussian(R) 16 program.  It is based on
 the Gaussian(R) 09 system (copyright 2009, Gaussian, Inc.),
 the Gaussian(R) 03 system (copyright 2003, Gaussian, Inc.),
 the Gaussian(R) 98 system (copyright 1998, Gaussian, Inc.),
 the Gaussian(R) 94 system (copyright 1995, Gaussian, Inc.),
 the Gaussian 92(TM) system (copyright 1992, Gaussian, Inc.),
 the Gaussian 90(TM) system (copyright 1990, Gaussian, Inc.),
 the Gaussian 88(TM) system (copyright 1988, Gaussian, Inc.),
 the Gaussian 86(TM) system (copyright 1986, Carnegie Mellon
 University), and the Gaussian 82(TM) system (copyright 1983,
 Carnegie Mellon University). Gaussian is a federally registered
 trademark of Gaussian, Inc.
  
 This software contains proprietary and confidential information,
 including trade secrets, belonging to Gaussian, Inc.
  
 This software is provided under written license and may be
 used, copied, transmitted, or stored only in accord with that
 written license.
  
 The following legend is applicable only to US Government
 contracts under FAR:
  
                    RESTRICTED RIGHTS LEGEND
  
 Use, reproduction and disclosure by the US Government is
 subject to restrictions as set forth in subparagraphs (a)
 and (c) of the Commercial Computer Software - Restricted
 Rights clause in FAR 52.227-19.
  
 Gaussian, Inc.
 340 Quinnipiac St., Bldg. 40, Wallingford CT 06492
  
  
 ---------------------------------------------------------------
 Warning -- This program may not be used in any manner that
 competes with the business of Gaussian, Inc. or will provide
 assistance to any competitor of Gaussian, Inc.  The licensee
 of this program is prohibited from giving any competitor of
 Gaussian, Inc. access to this program.  By using this program,
 the user acknowledges that Gaussian, Inc. is engaged in the
 business of creating and licensing software in the field of
 computational chemistry and represents and warrants to the
 licensee that it is not a competitor of Gaussian, Inc. and that
 it will not use this program in any manner prohibited above.
 ---------------------------------------------------------------
  

 Cite this work as:
 Gaussian 16, Revision A.03,
 M. J. Frisch, G. W. Trucks, H. B. Schlegel, G. E. Scuseria, 
 M. A. Robb, J. R. Cheeseman, G. Scalmani, V. Barone, 
 G. A. Petersson, H. Nakatsuji, X. Li, M. Caricato, A. V. Marenich, 
 J. Bloino, B. G. Janesko, R. Gomperts, B. Mennucci, H. P. Hratchian, 
 J. V. Ortiz, A. F. Izmaylov, J. L. Sonnenberg, D. Williams-Young, 
 F. Ding, F. Lipparini, F. Egidi, J. Goings, B. Peng, A. Petrone, 
 T. Henderson, D. Ranasinghe, V. G. Zakrzewski, J. Gao, N. Rega, 
 G. Zheng, W. Liang, M. Hada, M. Ehara, K. Toyota, R. Fukuda, 
 J. Hasegawa, M. Ishida, T. Nakajima, Y. Honda, O. Kitao, H. Nakai, 
 T. Vreven, K. Throssell, J. A. Montgomery, Jr., J. E. Peralta, 
 F. Ogliaro, M. J. Bearpark, J. J. Heyd, E. N. Brothers, K. N. Kudin, 
 V. N. Staroverov, T. A. Keith, R. Kobayashi, J. Normand, 
 K. Raghavachari, A. P. Rendell, J. C. Burant, S. S. Iyengar, 
 J. Tomasi, M. Cossi, J. M. Millam, M. Klene, C. Adamo, R. Cammi, 
 J. W. Ochterski, R. L. Martin, K. Morokuma, O. Farkas, 
 J. B. Foresman, and D. J. Fox, Gaussian, Inc., Wallingford CT, 2016.
 
 ******************************************
 Gaussian 16:  ES64L-G16RevA.03 25-Dec-2016
                 4-Jan-2019 
 ******************************************
 %nprocshared=8
 Will use up to    8 processors via shared memory.
 %mem=2GB
 %chk=fenol_b3lypd3_n07d_ccl4_of.chk
 ----------------------------------------------------------------------
 #p opt freq b3lyp/gen scrf=(solvent=ccl4,pcm) geom=connectivity empiri
 caldispersion=gd3
 ----------------------------------------------------------------------
 1/18=20,19=15,26=3,38=1,57=2/1,3;
 2/9=110,12=2,17=6,18=5,40=1/2;
 3/5=7,11=2,25=1,30=1,70=2201,71=1,72=11,74=-5,124=31/1,2,3;
 4//1;
 5/5=2,38=5,53=11/2;
 6/7=2,8=2,9=2,10=2,28=1/1;
 7//1,2,3,16;
 1/18=20,19=15,26=3/3(2);
 2/9=110/2;
 99//99;
 2/9=110/2;
 3/5=7,6=1,11=2,25=1,30=1,70=2205,71=1,72=11,74=-5,82=7,124=31/1,2,3;
 4/5=5,16=3,69=1/1;
 5/5=2,38=5,53=11/2;
 7//1,2,3,16;
 1/18=20,19=15,26=3/3(-5);
 2/9=110/2;
 6/7=2,8=2,9=2,10=2,19=2,28=1/1;
 99/9=1/99;
 Leave Link    1 at Fri Jan  4 10:59:57 2019, MaxMem=   268435456 cpu:               0.7 elap:               0.1
 (Enter /home/apps/g16/g16/l101.exe)
 -------------------
 Title Card Required
 -------------------
 Symbolic Z-matrix:
 Charge =  0 Multiplicity = 1
 C                    -2.56171  -0.55162   0.00043 
 C                    -1.47217  -0.37497   0.85376 
 C                    -0.7746    0.83276   0.85351 
 C                    -1.16576   1.86411  -0.0012 
 C                    -2.25475   1.68726  -0.85463 
 C                    -2.95304   0.47945  -0.85356 
 H                    -3.11183  -1.50373   0.0011 
 H                    -1.16438  -1.18776   1.52746 
 H                     0.08381   0.97231   1.52654 
 H                    -2.56328   2.49989  -1.52837 
 H                    -3.81163   0.34032  -1.52631 
 O                    -0.45029   3.10226  -0.00128 
 H                    -0.84402   3.69985  -0.64117 
 
 ITRead=  0  0  0  0  0  0  0  0  0  0  0  0  0
 MicOpt= -1 -1 -1 -1 -1 -1 -1 -1 -1 -1 -1 -1 -1
 NAtoms=     13 NQM=       13 NQMF=       0 NMMI=      0 NMMIF=      0
                NMic=       0 NMicF=      0.
                    Isotopes and Nuclear Properties:
 (Nuclear quadrupole moments (NQMom) in fm**2, nuclear magnetic moments (NMagM)
  in nuclear magnetons)

  Atom         1           2           3           4           5           6           7           8           9          10
 IAtWgt=          12          12          12          12          12          12           1           1           1           1
 AtmWgt=  12.0000000  12.0000000  12.0000000  12.0000000  12.0000000  12.0000000   1.0078250   1.0078250   1.0078250   1.0078250
 NucSpn=           0           0           0           0           0           0           1           1           1           1
 AtZEff=  -0.0000000  -0.0000000  -0.0000000  -0.0000000  -0.0000000  -0.0000000  -0.0000000  -0.0000000  -0.0000000  -0.0000000
 NQMom=    0.0000000   0.0000000   0.0000000   0.0000000   0.0000000   0.0000000   0.0000000   0.0000000   0.0000000   0.0000000
 NMagM=    0.0000000   0.0000000   0.0000000   0.0000000   0.0000000   0.0000000   2.7928460   2.7928460   2.7928460   2.7928460
 AtZNuc=   6.0000000   6.0000000   6.0000000   6.0000000   6.0000000   6.0000000   1.0000000   1.0000000   1.0000000   1.0000000

  Atom        11          12          13
 IAtWgt=           1          16           1
 AtmWgt=   1.0078250  15.9949146   1.0078250
 NucSpn=           1           0           1
 AtZEff=  -0.0000000  -0.0000000  -0.0000000
 NQMom=    0.0000000   0.0000000   0.0000000
 NMagM=    2.7928460   0.0000000   2.7928460
 AtZNuc=   1.0000000   8.0000000   1.0000000
 Leave Link  101 at Fri Jan  4 10:59:57 2019, MaxMem=   268435456 cpu:               2.2 elap:               0.3
 (Enter /home/apps/g16/g16/l103.exe)

 GradGradGradGradGradGradGradGradGradGradGradGradGradGradGradGradGradGrad
 Berny optimization.
 Initialization pass.
                           ----------------------------
                           !    Initial Parameters    !
                           ! (Angstroms and Degrees)  !
 --------------------------                            --------------------------
 ! Name  Definition              Value          Derivative Info.                !
 --------------------------------------------------------------------------------
 ! R1    R(1,2)                  1.3952         estimate D2E/DX2                !
 ! R2    R(1,6)                  1.3948         estimate D2E/DX2                !
 ! R3    R(1,7)                  1.0996         estimate D2E/DX2                !
 ! R4    R(2,3)                  1.3947         estimate D2E/DX2                !
 ! R5    R(2,8)                  1.0997         estimate D2E/DX2                !
 ! R6    R(3,4)                  1.3954         estimate D2E/DX2                !
 ! R7    R(3,9)                  1.0997         estimate D2E/DX2                !
 ! R8    R(4,5)                  1.3948         estimate D2E/DX2                !
 ! R9    R(4,12)                 1.43           estimate D2E/DX2                !
 ! R10   R(5,6)                  1.3951         estimate D2E/DX2                !
 ! R11   R(5,10)                 1.0998         estimate D2E/DX2                !
 ! R12   R(6,11)                 1.0996         estimate D2E/DX2                !
 ! R13   R(12,13)                0.96           estimate D2E/DX2                !
 ! A1    A(2,1,6)              119.9985         estimate D2E/DX2                !
 ! A2    A(2,1,7)              119.9972         estimate D2E/DX2                !
 ! A3    A(6,1,7)              120.0043         estimate D2E/DX2                !
 ! A4    A(1,2,3)              120.0086         estimate D2E/DX2                !
 ! A5    A(1,2,8)              119.9808         estimate D2E/DX2                !
 ! A6    A(3,2,8)              120.0106         estimate D2E/DX2                !
 ! A7    A(2,3,4)              119.9942         estimate D2E/DX2                !
 ! A8    A(2,3,9)              120.0128         estimate D2E/DX2                !
 ! A9    A(4,3,9)              119.993          estimate D2E/DX2                !
 ! A10   A(3,4,5)              119.994          estimate D2E/DX2                !
 ! A11   A(3,4,12)             119.9811         estimate D2E/DX2                !
 ! A12   A(5,4,12)             120.0249         estimate D2E/DX2                !
 ! A13   A(4,5,6)              120.0047         estimate D2E/DX2                !
 ! A14   A(4,5,10)             120.0113         estimate D2E/DX2                !
 ! A15   A(6,5,10)             119.984          estimate D2E/DX2                !
 ! A16   A(1,6,5)              120.0            estimate D2E/DX2                !
 ! A17   A(1,6,11)             120.008          estimate D2E/DX2                !
 ! A18   A(5,6,11)             119.992          estimate D2E/DX2                !
 ! A19   A(4,12,13)            109.5            estimate D2E/DX2                !
 ! D1    D(6,1,2,3)              0.0323         estimate D2E/DX2                !
 ! D2    D(6,1,2,8)            179.9532         estimate D2E/DX2                !
 ! D3    D(7,1,2,3)           -179.9729         estimate D2E/DX2                !
 ! D4    D(7,1,2,8)             -0.052          estimate D2E/DX2                !
 ! D5    D(2,1,6,5)              0.0149         estimate D2E/DX2                !
 ! D6    D(2,1,6,11)           179.9892         estimate D2E/DX2                !
 ! D7    D(7,1,6,5)           -179.9798         estimate D2E/DX2                !
 ! D8    D(7,1,6,11)            -0.0056         estimate D2E/DX2                !
 ! D9    D(1,2,3,4)             -0.0568         estimate D2E/DX2                !
 ! D10   D(1,2,3,9)            179.9619         estimate D2E/DX2                !
 ! D11   D(8,2,3,4)           -179.9777         estimate D2E/DX2                !
 ! D12   D(8,2,3,9)              0.041          estimate D2E/DX2                !
 ! D13   D(2,3,4,5)              0.0341         estimate D2E/DX2                !
 ! D14   D(2,3,4,12)          -179.9964         estimate D2E/DX2                !
 ! D15   D(9,3,4,5)           -179.9846         estimate D2E/DX2                !
 ! D16   D(9,3,4,12)            -0.0151         estimate D2E/DX2                !
 ! D17   D(3,4,5,6)              0.0131         estimate D2E/DX2                !
 ! D18   D(3,4,5,10)          -179.9995         estimate D2E/DX2                !
 ! D19   D(12,4,5,6)          -179.9563         estimate D2E/DX2                !
 ! D20   D(12,4,5,10)            0.0311         estimate D2E/DX2                !
 ! D21   D(3,4,12,13)          180.0            estimate D2E/DX2                !
 ! D22   D(5,4,12,13)           -0.0306         estimate D2E/DX2                !
 ! D23   D(4,5,6,1)             -0.0376         estimate D2E/DX2                !
 ! D24   D(4,5,6,11)           179.9881         estimate D2E/DX2                !
 ! D25   D(10,5,6,1)           179.975          estimate D2E/DX2                !
 ! D26   D(10,5,6,11)            0.0007         estimate D2E/DX2                !
 --------------------------------------------------------------------------------
 Trust Radius=3.00D-01 FncErr=1.00D-07 GrdErr=1.00D-06 EigMax=2.50D+02 EigMin=1.00D-04
 Number of steps in this run=     68 maximum allowed number of steps=    100.
 GradGradGradGradGradGradGradGradGradGradGradGradGradGradGradGradGradGrad

 Leave Link  103 at Fri Jan  4 10:59:58 2019, MaxMem=   268435456 cpu:               0.1 elap:               0.0
 (Enter /home/apps/g16/g16/l202.exe)
                          Input orientation:                          
 ---------------------------------------------------------------------
 Center     Atomic      Atomic             Coordinates (Angstroms)
 Number     Number       Type             X           Y           Z
 ---------------------------------------------------------------------
      1          6           0       -2.561709   -0.551624    0.000429
      2          6           0       -1.472171   -0.374966    0.853758
      3          6           0       -0.774599    0.832765    0.853512
      4          6           0       -1.165760    1.864113   -0.001199
      5          6           0       -2.254753    1.687256   -0.854635
      6          6           0       -2.953042    0.479447   -0.853561
      7          1           0       -3.111826   -1.503734    0.001096
      8          1           0       -1.164379   -1.187761    1.527457
      9          1           0        0.083809    0.972307    1.526536
     10          1           0       -2.563276    2.499886   -1.528371
     11          1           0       -3.811635    0.340319   -1.526310
     12          8           0       -0.450292    3.102259   -0.001276
     13          1           0       -0.844020    3.699846   -0.641172
 ---------------------------------------------------------------------
                    Distance matrix (angstroms):
                    1          2          3          4          5
     1  C    0.000000
     2  C    1.395160   0.000000
     3  C    2.416205   1.394712   0.000000
     4  C    2.790065   2.416260   1.395427   0.000000
     5  C    2.416183   2.789946   2.416356   1.394825   0.000000
     6  C    1.394829   2.416183   2.790080   2.416236   1.395138
     7  H    1.099610   2.165553   3.412986   3.889675   3.413102
     8  H    2.165414   1.099655   2.165330   3.413316   3.889601
     9  H    3.413229   2.165375   1.099680   2.165806   3.413209
    10  H    3.413055   3.889707   3.413506   2.165528   1.099761
    11  H    2.165365   3.413128   3.889684   3.412999   2.165471
    12  O    4.220065   3.723763   2.446720   1.430000   2.446740
    13  H    4.630023   4.385600   3.234046   1.970533   2.467034
                    6          7          8          9         10
     6  C    0.000000
     7  H    2.165331   0.000000
     8  H    3.412938   2.494427   0.000000
     9  H    3.889760   4.320860   2.494768   0.000000
    10  H    2.165516   4.320781   4.989362   4.321228   0.000000
    11  H    1.099604   2.494641   4.320704   4.989364   2.494420
    12  O    3.724149   5.319675   4.609904   2.675101   2.675738
    13  H    3.855393   5.712504   5.356705   3.605454   2.276591
                   11         12         13
    11  H    0.000000
    12  O    4.610061   0.000000
    13  H    4.569095   0.960000   0.000000
 Stoichiometry    C6H6O
 Framework group  C1[X(C6H6O)]
 Deg. of freedom    33
 Full point group                 C1      NOp   1
 Largest Abelian subgroup         C1      NOp   1
 Largest concise Abelian subgroup C1      NOp   1
                         Standard orientation:                         
 ---------------------------------------------------------------------
 Center     Atomic      Atomic             Coordinates (Angstroms)
 Number     Number       Type             X           Y           Z
 ---------------------------------------------------------------------
      1          6           0       -1.859066    0.062329    0.000071
      2          6           0       -1.214229   -1.174868   -0.000349
      3          6           0        0.179177   -1.235212    0.000112
      4          6           0        0.928403   -0.057979   -0.000205
      5          6           0        0.283652    1.178885   -0.000263
      6          6           0       -1.110187    1.239074    0.000271
      7          1           0       -2.957656    0.109686    0.000158
      8          1           0       -1.804916   -2.102408    0.000270
      9          1           0        0.687516   -2.210347    0.000414
     10          1           0        0.873850    2.106862   -0.000521
     11          1           0       -1.618257    2.214263    0.000423
     12          8           0        2.357050   -0.120174    0.000191
     13          1           0        2.716560    0.769968   -0.000101
 ---------------------------------------------------------------------
 Rotational constants (GHZ):           5.6379237           2.5532427           1.7573795
 Leave Link  202 at Fri Jan  4 10:59:58 2019, MaxMem=   268435456 cpu:               0.0 elap:               0.0
 (Enter /home/apps/g16/g16/l301.exe)
 General basis read from cards:  (5D, 7F)
 Centers:       7      8      9     10     11     13
 6-31G
 P 1 1.00 0.000000000000
     Exponent=  7.5000000000D-01 Coefficients=  1.0000000000D+00
 ****
 Centers:       1      2      3      4      5      6
 6-31G
 S 1 1.00 0.000000000000
     Exponent=  7.5000000000D+00 Coefficients=  1.0000000000D+00
 P 1 1.00 0.000000000000
     Exponent=  5.0000000000D-02 Coefficients=  1.0000000000D+00
 D 1 1.00 0.000000000000
     Exponent=  8.2000000000D-01 Coefficients=  1.0000000000D+00
 ****
 Centers:      12
 6-31G
 S 1 1.00
     Exponent=  1.5100000000D+01 Coefficients=  1.0000000000D+00
 P 1 1.00 0.000000000000
     Exponent=  6.5000000000D-02 Coefficients=  1.0000000000D+00
 D 1 1.00 0.000000000000
     Exponent=  1.1900000000D+00 Coefficients=  1.0000000000D+00
 D 1 1.00 0.000000000000
     Exponent=  1.8000000000D-01 Coefficients=  1.0000000000D+00
 ****
 Ernie: Thresh=  0.10000D-02 Tol=  0.10000D-05 Strict=F.
 There are   169 symmetry adapted cartesian basis functions of A   symmetry.
 There are   161 symmetry adapted basis functions of A   symmetry.
   161 basis functions,   272 primitive gaussians,   169 cartesian basis functions
    25 alpha electrons       25 beta electrons
       nuclear repulsion energy       268.9520819373 Hartrees.
 IExCor=  402 DFT=T Ex+Corr=B3LYP ExCW=0 ScaHFX=  0.200000
 ScaDFX=  0.800000  0.720000  1.000000  0.810000 ScalE2=  1.000000  1.000000
 IRadAn=      5 IRanWt=     -1 IRanGd=            0 ICorTp=0 IEmpDi=131
 NAtoms=   13 NActive=   13 NUniq=   13 SFac= 1.00D+00 NAtFMM=   60 NAOKFM=F Big=F
 Integral buffers will be    131072 words long.
 Raffenetti 2 integral format.
 Two-electron integral symmetry is turned on.
 R6Disp:  Grimme-D3 Dispersion energy=       -0.0065251500 Hartrees.
 Nuclear repulsion after empirical dispersion term =      268.9455567873 Hartrees.
 ------------------------------------------------------------------------------
 Polarizable Continuum Model (PCM)
 =================================
 Model                : PCM.
 Atomic radii         : UFF (Universal Force Field).
 Polarization charges : Total charges.
 Charge compensation  : None.
 Solution method      : On-the-fly selection.
 Cavity type          : Scaled VdW (van der Waals Surface) (Alpha=1.100).
 Cavity algorithm     : GePol (No added spheres)
                        Default sphere list used, NSphG=   13.
                        Lebedev-Laikov grids with approx.  5.0 points / Ang**2.
                        Smoothing algorithm: York/Karplus (Gamma=1.0000).
                        Polarization charges: spherical gaussians, with
                                              point-specific exponents (IZeta= 3).
                        Self-potential: point-specific (ISelfS= 7).
                        Self-field    : sphere-specific E.n sum rule (ISelfD= 2).
 1st derivatives      : Analytical E(r).r(x)/FMM algorithm (CHGder, D1EAlg=3).
                        Cavity 1st derivative terms included.
 Solvent              : CarbonTetraChloride, Eps=   2.228000 Eps(inf)=   2.131892
 ------------------------------------------------------------------------------
 Spheres list:
 ISph  on   Nord     Re0    Alpha      Xe            Ye            Ze
    1   C      1    1.9255  1.100     -1.859066      0.062329      0.000071
    2   C      2    1.9255  1.100     -1.214229     -1.174868     -0.000349
    3   C      3    1.9255  1.100      0.179177     -1.235212      0.000112
    4   C      4    1.9255  1.100      0.928403     -0.057979     -0.000205
    5   C      5    1.9255  1.100      0.283652      1.178885     -0.000263
    6   C      6    1.9255  1.100     -1.110187      1.239074      0.000271
    7   H      7    1.4430  1.100     -2.957656      0.109686      0.000158
    8   H      8    1.4430  1.100     -1.804916     -2.102408      0.000270
    9   H      9    1.4430  1.100      0.687516     -2.210347      0.000414
   10   H     10    1.4430  1.100      0.873850      2.106862     -0.000521
   11   H     11    1.4430  1.100     -1.618257      2.214263      0.000423
   12   O     12    1.7500  1.100      2.357050     -0.120174      0.000191
   13   H     13    1.4430  1.100      2.716560      0.769968     -0.000101
 ------------------------------------------------------------------------------
 GePol: Number of generator spheres                  =      13
 GePol: Total number of spheres                      =      13
 GePol: Number of exposed spheres                    =      13 (100.00%)
 GePol: Number of points                             =    1161
 GePol: Average weight of points                     =       0.13
 GePol: Minimum weight of points                     =   0.32D-08
 GePol: Maximum weight of points                     =    0.20577
 GePol: Number of points with low weight             =      51
 GePol: Fraction of low-weight points (<1% of avg)   =       4.39%
 GePol: Cavity surface area                          =    155.660 Ang**2
 GePol: Cavity volume                                =    147.927 Ang**3
 Leave Link  301 at Fri Jan  4 10:59:58 2019, MaxMem=   268435456 cpu:               1.3 elap:               0.2
 (Enter /home/apps/g16/g16/l302.exe)
 NPDir=0 NMtPBC=     1 NCelOv=     1 NCel=       1 NClECP=     1 NCelD=      1
         NCelK=      1 NCelE2=     1 NClLst=     1 CellRange=     0.0.
 One-electron integrals computed using PRISM.
 One-electron integral symmetry used in STVInt
 NBasis=   161 RedAO= T EigKep=  2.50D-05  NBF=   161
 NBsUse=   161 1.00D-06 EigRej= -1.00D+00 NBFU=   161
 Precomputing XC quadrature grid using
 IXCGrd= 4 IRadAn=           5 IRanWt=          -1 IRanGd=           0 AccXCQ= 0.00D+00.
 Generated NRdTot=       0 NPtTot=           0 NUsed=           0 NTot=          32
 NSgBfM=   168   168   168   168   168 MxSgAt=    13 MxSgA2=    13.
 Leave Link  302 at Fri Jan  4 10:59:58 2019, MaxMem=   268435456 cpu:               3.1 elap:               0.4
 (Enter /home/apps/g16/g16/l303.exe)
 DipDrv:  MaxL=1.
 Leave Link  303 at Fri Jan  4 10:59:59 2019, MaxMem=   268435456 cpu:               0.3 elap:               0.1
 (Enter /home/apps/g16/g16/l401.exe)
 ExpMin= 5.00D-02 ExpMax= 5.48D+03 ExpMxC= 8.25D+02 IAcc=3 IRadAn=         5 AccDes= 0.00D+00
 Harris functional with IExCor=  402 and IRadAn=       5 diagonalized for initial guess.
 HarFok:  IExCor=  402 AccDes= 0.00D+00 IRadAn=         5 IDoV= 1 UseB2=F ITyADJ=14
 ICtDFT=  3500011 ScaDFX=  1.000000  1.000000  1.000000  1.000000
 FoFCou: FMM=F IPFlag=           0 FMFlag=      100000 FMFlg1=           0
         NFxFlg=           0 DoJE=T BraDBF=F KetDBF=T FulRan=T
         wScrn=  0.000000 ICntrl=       500 IOpCl=  0 I1Cent=   200000004 NGrid=           0
         NMat0=    1 NMatS0=      1 NMatT0=    0 NMatD0=    1 NMtDS0=    0 NMtDT0=    0
 Petite list used in FoFCou.
 Harris En= -307.507475875936    
 JPrj=0 DoOrth=F DoCkMO=F.
 Leave Link  401 at Fri Jan  4 11:00:01 2019, MaxMem=   268435456 cpu:              16.6 elap:               2.1
 (Enter /home/apps/g16/g16/l502.exe)
 Integral symmetry usage will be decided dynamically.
 Closed shell SCF:
 Using DIIS extrapolation, IDIIS=  1040.
 NGot=   268435456 LenX=   268375197 LenY=   268346195
 Requested convergence on RMS density matrix=1.00D-08 within 128 cycles.
 Requested convergence on MAX density matrix=1.00D-06.
 Requested convergence on             energy=1.00D-06.
 No special actions if energy rises.
 Fock matrices will be formed incrementally for  20 cycles.

 Cycle   1  Pass 1  IDiag  1:
 FoFJK:  IHMeth= 1 ICntrl=       0 DoSepK=F KAlg= 0 I1Cent=           0 FoldK=F
 IRaf= 950000000 NMat=       1 IRICut=       1 DoRegI=T DoRafI=F ISym2E= 0 IDoP0=0 IntGTp=1.
 FoFCou: FMM=F IPFlag=           0 FMFlag=      100000 FMFlg1=           0
         NFxFlg=           0 DoJE=F BraDBF=F KetDBF=F FulRan=T
         wScrn=  0.000000 ICntrl=         0 IOpCl=  0 I1Cent=           0 NGrid=           0
         NMat0=    1 NMatS0=      1 NMatT0=    0 NMatD0=    1 NMtDS0=    0 NMtDT0=    0
 Symmetry not used in FoFCou.
 Inv3:  Mode=1 IEnd=     4043763.
 Iteration    1 A*A^-1 deviation from unit magnitude is 5.00D-15 for    570.
 Iteration    1 A*A^-1 deviation from orthogonality  is 2.66D-15 for   1161   1002.
 Iteration    1 A^-1*A deviation from unit magnitude is 5.44D-15 for    570.
 Iteration    1 A^-1*A deviation from orthogonality  is 2.04D-15 for    916    578.
 E= -307.329262528569    
 DIIS: error= 3.32D-02 at cycle   1 NSaved=   1.
 NSaved= 1 IEnMin= 1 EnMin= -307.329262528569     IErMin= 1 ErrMin= 3.32D-02
 ErrMax= 3.32D-02  0.00D+00 EMaxC= 1.00D-01 BMatC= 1.56D-01 BMatP= 1.56D-01
 IDIUse=3 WtCom= 6.68D-01 WtEn= 3.32D-01
 Coeff-Com:  0.100D+01
 Coeff-En:   0.100D+01
 Coeff:      0.100D+01
 Gap=     0.230 Goal=   None    Shift=    0.000
 GapD=    0.230 DampG=1.000 DampE=0.500 DampFc=0.5000 IDamp=-1.
 Damping current iteration by 5.00D-01
 RMSDP=5.19D-03 MaxDP=1.03D-01              OVMax= 1.93D-01

 Cycle   2  Pass 1  IDiag  1:
 RMSU=  2.52D-03    CP:  9.74D-01
 E= -307.400827905000     Delta-E=       -0.071565376431 Rises=F Damp=T
 DIIS: error= 5.58D-03 at cycle   2 NSaved=   2.
 NSaved= 2 IEnMin= 2 EnMin= -307.400827905000     IErMin= 2 ErrMin= 5.58D-03
 ErrMax= 5.58D-03  0.00D+00 EMaxC= 1.00D-01 BMatC= 7.97D-03 BMatP= 1.56D-01
 IDIUse=3 WtCom= 9.44D-01 WtEn= 5.58D-02
 Coeff-Com:  0.794D-01 0.921D+00
 Coeff-En:   0.142D+00 0.858D+00
 Coeff:      0.829D-01 0.917D+00
 Gap=     0.256 Goal=   None    Shift=    0.000
 RMSDP=1.54D-03 MaxDP=2.68D-02 DE=-7.16D-02 OVMax= 1.20D-01

 Cycle   3  Pass 1  IDiag  1:
 RMSU=  1.50D-03    CP:  9.62D-01  9.26D-01
 E= -307.493415969316     Delta-E=       -0.092588064316 Rises=F Damp=F
 DIIS: error= 4.39D-03 at cycle   3 NSaved=   3.
 NSaved= 3 IEnMin= 3 EnMin= -307.493415969316     IErMin= 3 ErrMin= 4.39D-03
 ErrMax= 4.39D-03  0.00D+00 EMaxC= 1.00D-01 BMatC= 3.62D-03 BMatP= 7.97D-03
 IDIUse=3 WtCom= 9.56D-01 WtEn= 4.39D-02
 Coeff-Com: -0.109D-01 0.379D+00 0.632D+00
 Coeff-En:   0.000D+00 0.000D+00 0.100D+01
 Coeff:     -0.104D-01 0.362D+00 0.648D+00
 Gap=     0.218 Goal=   None    Shift=    0.000
 RMSDP=5.22D-04 MaxDP=1.80D-02 DE=-9.26D-02 OVMax= 3.60D-02

 Cycle   4  Pass 1  IDiag  1:
 RMSU=  4.97D-04    CP:  9.62D-01  9.48D-01  8.99D-01
 E= -307.495400511095     Delta-E=       -0.001984541779 Rises=F Damp=F
 DIIS: error= 3.24D-03 at cycle   4 NSaved=   4.
 NSaved= 4 IEnMin= 4 EnMin= -307.495400511095     IErMin= 4 ErrMin= 3.24D-03
 ErrMax= 3.24D-03  0.00D+00 EMaxC= 1.00D-01 BMatC= 1.51D-03 BMatP= 3.62D-03
 IDIUse=3 WtCom= 9.68D-01 WtEn= 3.24D-02
 Coeff-Com: -0.172D-01 0.112D+00 0.416D+00 0.490D+00
 Coeff-En:   0.000D+00 0.000D+00 0.335D+00 0.665D+00
 Coeff:     -0.166D-01 0.108D+00 0.413D+00 0.495D+00
 Gap=     0.217 Goal=   None    Shift=    0.000
 RMSDP=2.80D-04 MaxDP=6.46D-03 DE=-1.98D-03 OVMax= 1.84D-02

 Cycle   5  Pass 1  IDiag  1:
 RMSU=  1.17D-04    CP:  9.62D-01  9.50D-01  8.75D-01  4.93D-01
 E= -307.497055131135     Delta-E=       -0.001654620039 Rises=F Damp=F
 DIIS: error= 3.12D-04 at cycle   5 NSaved=   5.
 NSaved= 5 IEnMin= 5 EnMin= -307.497055131135     IErMin= 5 ErrMin= 3.12D-04
 ErrMax= 3.12D-04  0.00D+00 EMaxC= 1.00D-01 BMatC= 2.16D-05 BMatP= 1.51D-03
 IDIUse=3 WtCom= 9.97D-01 WtEn= 3.12D-03
 Coeff-Com: -0.561D-02 0.100D-01 0.897D-01 0.168D+00 0.738D+00
 Coeff-En:   0.000D+00 0.000D+00 0.000D+00 0.000D+00 0.100D+01
 Coeff:     -0.560D-02 0.100D-01 0.894D-01 0.167D+00 0.739D+00
 Gap=     0.217 Goal=   None    Shift=    0.000
 RMSDP=3.96D-05 MaxDP=1.09D-03 DE=-1.65D-03 OVMax= 2.62D-03

 Cycle   6  Pass 1  IDiag  1:
 RMSU=  2.21D-05    CP:  9.62D-01  9.54D-01  8.82D-01  5.41D-01  8.45D-01
 E= -307.497074395495     Delta-E=       -0.000019264360 Rises=F Damp=F
 DIIS: error= 1.62D-04 at cycle   6 NSaved=   6.
 NSaved= 6 IEnMin= 6 EnMin= -307.497074395495     IErMin= 6 ErrMin= 1.62D-04
 ErrMax= 1.62D-04  0.00D+00 EMaxC= 1.00D-01 BMatC= 5.00D-06 BMatP= 2.16D-05
 IDIUse=3 WtCom= 9.98D-01 WtEn= 1.62D-03
 Coeff-Com: -0.293D-02 0.295D-02 0.412D-01 0.847D-01 0.442D+00 0.432D+00
 Coeff-En:   0.000D+00 0.000D+00 0.000D+00 0.000D+00 0.963D-01 0.904D+00
 Coeff:     -0.292D-02 0.294D-02 0.412D-01 0.845D-01 0.442D+00 0.433D+00
 Gap=     0.217 Goal=   None    Shift=    0.000
 RMSDP=1.26D-05 MaxDP=3.94D-04 DE=-1.93D-05 OVMax= 6.68D-04

 Cycle   7  Pass 1  IDiag  1:
 RMSU=  6.41D-06    CP:  9.62D-01  9.53D-01  8.83D-01  5.34D-01  8.48D-01
                    CP:  5.63D-01
 E= -307.497079004250     Delta-E=       -0.000004608755 Rises=F Damp=F
 DIIS: error= 3.32D-05 at cycle   7 NSaved=   7.
 NSaved= 7 IEnMin= 7 EnMin= -307.497079004250     IErMin= 7 ErrMin= 3.32D-05
 ErrMax= 3.32D-05  0.00D+00 EMaxC= 1.00D-01 BMatC= 9.73D-08 BMatP= 5.00D-06
 IDIUse=1 WtCom= 1.00D+00 WtEn= 0.00D+00
 Coeff-Com: -0.646D-03 0.850D-04 0.894D-02 0.202D-01 0.117D+00 0.167D+00
 Coeff-Com:  0.687D+00
 Coeff:     -0.646D-03 0.850D-04 0.894D-02 0.202D-01 0.117D+00 0.167D+00
 Coeff:      0.687D+00
 Gap=     0.217 Goal=   None    Shift=    0.000
 RMSDP=2.37D-06 MaxDP=9.02D-05 DE=-4.61D-06 OVMax= 1.67D-04

 Cycle   8  Pass 1  IDiag  1:
 RMSU=  1.94D-06    CP:  9.62D-01  9.53D-01  8.84D-01  5.36D-01  8.48D-01
                    CP:  5.84D-01  8.74D-01
 E= -307.497079060252     Delta-E=       -0.000000056002 Rises=F Damp=F
 DIIS: error= 1.22D-05 at cycle   8 NSaved=   8.
 NSaved= 8 IEnMin= 8 EnMin= -307.497079060252     IErMin= 8 ErrMin= 1.22D-05
 ErrMax= 1.22D-05  0.00D+00 EMaxC= 1.00D-01 BMatC= 2.75D-08 BMatP= 9.73D-08
 IDIUse=1 WtCom= 1.00D+00 WtEn= 0.00D+00
 Coeff-Com: -0.111D-03-0.268D-03 0.149D-02 0.433D-02 0.296D-01 0.592D-01
 Coeff-Com:  0.408D+00 0.498D+00
 Coeff:     -0.111D-03-0.268D-03 0.149D-02 0.433D-02 0.296D-01 0.592D-01
 Coeff:      0.408D+00 0.498D+00
 Gap=     0.217 Goal=   None    Shift=    0.000
 RMSDP=9.09D-07 MaxDP=3.85D-05 DE=-5.60D-08 OVMax= 6.54D-05

 Cycle   9  Pass 1  IDiag  1:
 RMSU=  5.04D-07    CP:  9.62D-01  9.53D-01  8.84D-01  5.36D-01  8.49D-01
                    CP:  5.87D-01  9.14D-01  6.49D-01
 E= -307.497079084850     Delta-E=       -0.000000024598 Rises=F Damp=F
 DIIS: error= 1.34D-06 at cycle   9 NSaved=   9.
 NSaved= 9 IEnMin= 9 EnMin= -307.497079084850     IErMin= 9 ErrMin= 1.34D-06
 ErrMax= 1.34D-06  0.00D+00 EMaxC= 1.00D-01 BMatC= 3.62D-10 BMatP= 2.75D-08
 IDIUse=1 WtCom= 1.00D+00 WtEn= 0.00D+00
 Coeff-Com:  0.175D-04-0.762D-04-0.212D-03-0.156D-03 0.879D-04 0.457D-02
 Coeff-Com:  0.674D-01 0.141D+00 0.787D+00
 Coeff:      0.175D-04-0.762D-04-0.212D-03-0.156D-03 0.879D-04 0.457D-02
 Coeff:      0.674D-01 0.141D+00 0.787D+00
 Gap=     0.217 Goal=   None    Shift=    0.000
 RMSDP=1.70D-07 MaxDP=5.33D-06 DE=-2.46D-08 OVMax= 1.16D-05

 Cycle  10  Pass 1  IDiag  1:
 RMSU=  1.07D-07    CP:  9.62D-01  9.53D-01  8.84D-01  5.36D-01  8.49D-01
                    CP:  5.87D-01  9.23D-01  6.96D-01  9.09D-01
 E= -307.497079085191     Delta-E=       -0.000000000342 Rises=F Damp=F
 DIIS: error= 5.26D-07 at cycle  10 NSaved=  10.
 NSaved=10 IEnMin=10 EnMin= -307.497079085191     IErMin=10 ErrMin= 5.26D-07
 ErrMax= 5.26D-07  0.00D+00 EMaxC= 1.00D-01 BMatC= 4.34D-11 BMatP= 3.62D-10
 IDIUse=1 WtCom= 1.00D+00 WtEn= 0.00D+00
 Coeff-Com:  0.921D-05-0.207D-04-0.114D-03-0.167D-03-0.680D-03 0.205D-03
 Coeff-Com:  0.148D-01 0.335D-01 0.323D+00 0.630D+00
 Coeff:      0.921D-05-0.207D-04-0.114D-03-0.167D-03-0.680D-03 0.205D-03
 Coeff:      0.148D-01 0.335D-01 0.323D+00 0.630D+00
 Gap=     0.217 Goal=   None    Shift=    0.000
 RMSDP=6.38D-08 MaxDP=2.29D-06 DE=-3.42D-10 OVMax= 4.98D-06

 Cycle  11  Pass 1  IDiag  1:
 RMSU=  5.32D-08    CP:  9.62D-01  9.53D-01  8.84D-01  5.36D-01  8.49D-01
                    CP:  5.87D-01  9.25D-01  6.94D-01  9.42D-01  7.59D-01
 E= -307.497079085226     Delta-E=       -0.000000000035 Rises=F Damp=F
 DIIS: error= 3.66D-07 at cycle  11 NSaved=  11.
 NSaved=11 IEnMin=11 EnMin= -307.497079085226     IErMin=11 ErrMin= 3.66D-07
 ErrMax= 3.66D-07  0.00D+00 EMaxC= 1.00D-01 BMatC= 1.84D-11 BMatP= 4.34D-11
 IDIUse=1 WtCom= 1.00D+00 WtEn= 0.00D+00
 Coeff-Com:  0.301D-05 0.896D-06-0.389D-04-0.921D-04-0.522D-03-0.845D-03
 Coeff-Com: -0.382D-02-0.819D-02 0.652D-01 0.426D+00 0.522D+00
 Coeff:      0.301D-05 0.896D-06-0.389D-04-0.921D-04-0.522D-03-0.845D-03
 Coeff:     -0.382D-02-0.819D-02 0.652D-01 0.426D+00 0.522D+00
 Gap=     0.217 Goal=   None    Shift=    0.000
 RMSDP=2.74D-08 MaxDP=7.51D-07 DE=-3.47D-11 OVMax= 2.03D-06

 Cycle  12  Pass 1  IDiag  1:
 RMSU=  1.11D-08    CP:  9.62D-01  9.53D-01  8.84D-01  5.36D-01  8.49D-01
                    CP:  5.87D-01  9.25D-01  6.93D-01  9.48D-01  8.85D-01
                    CP:  6.22D-01
 E= -307.497079085242     Delta-E=       -0.000000000016 Rises=F Damp=F
 DIIS: error= 3.11D-08 at cycle  12 NSaved=  12.
 NSaved=12 IEnMin=12 EnMin= -307.497079085242     IErMin=12 ErrMin= 3.11D-08
 ErrMax= 3.11D-08  0.00D+00 EMaxC= 1.00D-01 BMatC= 1.73D-13 BMatP= 1.84D-11
 IDIUse=1 WtCom= 1.00D+00 WtEn= 0.00D+00
 Coeff-Com:  0.589D-06 0.862D-06-0.760D-05-0.226D-04-0.139D-03-0.268D-03
 Coeff-Com: -0.175D-02-0.450D-02 0.574D-02 0.989D-01 0.135D+00 0.767D+00
 Coeff:      0.589D-06 0.862D-06-0.760D-05-0.226D-04-0.139D-03-0.268D-03
 Coeff:     -0.175D-02-0.450D-02 0.574D-02 0.989D-01 0.135D+00 0.767D+00
 Gap=     0.217 Goal=   None    Shift=    0.000
 RMSDP=4.06D-09 MaxDP=1.08D-07 DE=-1.59D-11 OVMax= 2.63D-07

 Error on total polarization charges =  0.00939
 SCF Done:  E(RB3LYP) =  -307.497079085     A.U. after   12 cycles
            NFock= 12  Conv=0.41D-08     -V/T= 2.0051
 KE= 3.059327158675D+02 PE=-1.253986136631D+03 EE= 3.716107848912D+02
 Leave Link  502 at Fri Jan  4 11:00:51 2019, MaxMem=   268435456 cpu:             401.8 elap:              50.6
 (Enter /home/apps/g16/g16/l601.exe)
 Copying SCF densities to generalized density rwf, IOpCl= 0 IROHF=0.

 **********************************************************************

            Population analysis using the SCF density.

 **********************************************************************

 Orbital symmetries:
       Occupied  (A) (A) (A) (A) (A) (A) (A) (A) (A) (A) (A) (A)
                 (A) (A) (A) (A) (A) (A) (A) (A) (A) (A) (A) (A)
                 (A)
       Virtual   (A) (A) (A) (A) (A) (A) (A) (A) (A) (A) (A) (A)
                 (A) (A) (A) (A) (A) (A) (A) (A) (A) (A) (A) (A)
                 (A) (A) (A) (A) (A) (A) (A) (A) (A) (A) (A) (A)
                 (A) (A) (A) (A) (A) (A) (A) (A) (A) (A) (A) (A)
                 (A) (A) (A) (A) (A) (A) (A) (A) (A) (A) (A) (A)
                 (A) (A) (A) (A) (A) (A) (A) (A) (A) (A) (A) (A)
                 (A) (A) (A) (A) (A) (A) (A) (A) (A) (A) (A) (A)
                 (A) (A) (A) (A) (A) (A) (A) (A) (A) (A) (A) (A)
                 (A) (A) (A) (A) (A) (A) (A) (A) (A) (A) (A) (A)
                 (A) (A) (A) (A) (A) (A) (A) (A) (A) (A) (A) (A)
                 (A) (A) (A) (A) (A) (A) (A) (A) (A) (A) (A) (A)
                 (A) (A) (A) (A)
 The electronic state is 1-A.
 Alpha  occ. eigenvalues --  -19.18209 -10.25607 -10.19839 -10.19778 -10.19624
 Alpha  occ. eigenvalues --  -10.19392 -10.18988  -1.04924  -0.86219  -0.75808
 Alpha  occ. eigenvalues --   -0.74855  -0.62596  -0.60931  -0.54690  -0.50298
 Alpha  occ. eigenvalues --   -0.47024  -0.44642  -0.43087  -0.40855  -0.39643
 Alpha  occ. eigenvalues --   -0.36618  -0.34947  -0.34393  -0.26530  -0.23951
 Alpha virt. eigenvalues --   -0.02235  -0.00905   0.01759   0.03222   0.04676
 Alpha virt. eigenvalues --    0.05394   0.06949   0.07056   0.09811   0.09930
 Alpha virt. eigenvalues --    0.10331   0.11066   0.13640   0.14238   0.15036
 Alpha virt. eigenvalues --    0.15670   0.15697   0.15930   0.16587   0.17200
 Alpha virt. eigenvalues --    0.17901   0.18955   0.21390   0.21845   0.23089
 Alpha virt. eigenvalues --    0.24385   0.25637   0.26503   0.27235   0.29081
 Alpha virt. eigenvalues --    0.29253   0.34585   0.35303   0.35519   0.37116
 Alpha virt. eigenvalues --    0.42931   0.44310   0.51594   0.53104   0.53405
 Alpha virt. eigenvalues --    0.57902   0.59546   0.65530   0.67996   0.68477
 Alpha virt. eigenvalues --    0.69755   0.73044   0.73940   0.74800   0.76825
 Alpha virt. eigenvalues --    0.76958   0.77324   0.78820   0.82570   0.83618
 Alpha virt. eigenvalues --    0.85811   0.89132   0.89904   0.92483   0.93182
 Alpha virt. eigenvalues --    0.94586   0.95320   0.97361   0.98858   1.02045
 Alpha virt. eigenvalues --    1.06149   1.08568   1.10345   1.13881   1.15525
 Alpha virt. eigenvalues --    1.17482   1.20279   1.26444   1.27551   1.28044
 Alpha virt. eigenvalues --    1.28769   1.38701   1.42786   1.57185   1.58873
 Alpha virt. eigenvalues --    1.65815   1.66736   1.68696   1.72158   1.73878
 Alpha virt. eigenvalues --    1.74392   1.76238   1.77518   1.80252   1.81057
 Alpha virt. eigenvalues --    1.82951   1.83618   1.84575   1.88934   1.92143
 Alpha virt. eigenvalues --    1.93489   1.94688   2.04521   2.05789   2.08590
 Alpha virt. eigenvalues --    2.17170   2.21758   2.26018   2.26709   2.26768
 Alpha virt. eigenvalues --    2.29177   2.33572   2.34406   2.35681   2.35994
 Alpha virt. eigenvalues --    2.39377   2.51429   2.66541   2.67423   2.69088
 Alpha virt. eigenvalues --    2.70496   2.72435   2.76152   2.89106   2.89609
 Alpha virt. eigenvalues --    2.94363   2.95178   3.03722   3.05158   3.13295
 Alpha virt. eigenvalues --    3.30176   3.37959   3.61218   3.82818  45.36490
 Alpha virt. eigenvalues --   45.40399  45.42306  45.44348  45.44964  45.48643
 Alpha virt. eigenvalues --   94.30860
          Condensed to atoms (all electrons):
               1          2          3          4          5          6
     1  C    4.908234   0.560218  -0.070968  -0.089840  -0.077272   0.567708
     2  C    0.560218   5.008298   0.512843  -0.098144  -0.075769  -0.091542
     3  C   -0.070968   0.512843   4.884692   0.601939  -0.050975  -0.071298
     4  C   -0.089840  -0.098144   0.601939   4.641752   0.536887  -0.091134
     5  C   -0.077272  -0.075769  -0.050975   0.536887   4.998899   0.519750
     6  C    0.567708  -0.091542  -0.071298  -0.091134   0.519750   4.969098
     7  H    0.391188  -0.042862   0.004272   0.003033   0.007099  -0.035661
     8  H   -0.053760   0.389763  -0.025324   0.014488  -0.001315   0.002464
     9  H    0.013215  -0.025522   0.384044  -0.051335   0.004115  -0.001719
    10  H    0.019296  -0.001447  -0.002751  -0.072977   0.389318  -0.008040
    11  H   -0.050727   0.003235  -0.000402   0.012242  -0.025614   0.387246
    12  O    0.003733   0.011150  -0.068855   0.148975  -0.078807   0.008600
    13  H    0.000524  -0.001991   0.004552  -0.037837  -0.000234   0.001555
               7          8          9         10         11         12
     1  C    0.391188  -0.053760   0.013215   0.019296  -0.050727   0.003733
     2  C   -0.042862   0.389763  -0.025522  -0.001447   0.003235   0.011150
     3  C    0.004272  -0.025324   0.384044  -0.002751  -0.000402  -0.068855
     4  C    0.003033   0.014488  -0.051335  -0.072977   0.012242   0.148975
     5  C    0.007099  -0.001315   0.004115   0.389318  -0.025614  -0.078807
     6  C   -0.035661   0.002464  -0.001719  -0.008040   0.387246   0.008600
     7  H    0.575694  -0.005424  -0.000119  -0.000127  -0.005461  -0.000056
     8  H   -0.005424   0.570435  -0.005611   0.000013  -0.000136  -0.000646
     9  H   -0.000119  -0.005611   0.566550  -0.000118   0.000013  -0.001674
    10  H   -0.000127   0.000013  -0.000118   0.587729  -0.005422  -0.010377
    11  H   -0.005461  -0.000136   0.000013  -0.005422   0.572508  -0.000978
    12  O   -0.000056  -0.000646  -0.001674  -0.010377  -0.000978   8.285980
    13  H   -0.000000   0.000002  -0.000044   0.002525  -0.000001   0.362922
              13
     1  C    0.000524
     2  C   -0.001991
     3  C    0.004552
     4  C   -0.037837
     5  C   -0.000234
     6  C    0.001555
     7  H   -0.000000
     8  H    0.000002
     9  H   -0.000044
    10  H    0.002525
    11  H   -0.000001
    12  O    0.362922
    13  H    0.372903
 Mulliken charges:
               1
     1  C   -0.121550
     2  C   -0.148231
     3  C   -0.101769
     4  C    0.481949
     5  C   -0.146082
     6  C   -0.157027
     7  H    0.108424
     8  H    0.115052
     9  H    0.118203
    10  H    0.102378
    11  H    0.113498
    12  O   -0.659968
    13  H    0.295125
 Sum of Mulliken charges =  -0.00000
 Mulliken charges with hydrogens summed into heavy atoms:
               1
     1  C   -0.013126
     2  C   -0.033180
     3  C    0.016434
     4  C    0.481949
     5  C   -0.043705
     6  C   -0.043529
    12  O   -0.364844
 Electronic spatial extent (au):  <R**2>=            678.2360
 Charge=             -0.0000 electrons
 Dipole moment (field-independent basis, Debye):
    X=             -0.5182    Y=              1.4453    Z=              0.0000  Tot=              1.5354
 Quadrupole moment (field-independent basis, Debye-Ang):
   XX=            -38.8951   YY=            -35.5667   ZZ=            -45.6977
   XY=              4.7508   XZ=             -0.0031   YZ=             -0.0019
 Traceless Quadrupole moment (field-independent basis, Debye-Ang):
   XX=              1.1581   YY=              4.4865   ZZ=             -5.6446
   XY=              4.7508   XZ=             -0.0031   YZ=             -0.0019
 Octapole moment (field-independent basis, Debye-Ang**2):
  XXX=              4.5811  YYY=              0.5506  ZZZ=              0.0021  XYY=              4.5711
  XXY=             13.7046  XXZ=             -0.0008  XZZ=              5.3072  YZZ=              0.0081
  YYZ=              0.0042  XYZ=             -0.0015
 Hexadecapole moment (field-independent basis, Debye-Ang**3):
 XXXX=           -511.5382 YYYY=           -278.1552 ZZZZ=            -54.9599 XXXY=             40.9943
 XXXZ=             -0.0157 YYYX=              3.9537 YYYZ=             -0.0114 ZZZX=             -0.0003
 ZZZY=             -0.0023 XXYY=           -123.7631 XXZZ=           -110.9962 YYZZ=            -67.5492
 XXYZ=             -0.0042 YYXZ=             -0.0069 ZZXY=              0.6649
 N-N= 2.689455567873D+02 E-N=-1.253986135524D+03  KE= 3.059327158675D+02
 No NMR shielding tensors so no spin-rotation constants.
 Leave Link  601 at Fri Jan  4 11:00:52 2019, MaxMem=   268435456 cpu:               1.9 elap:               0.4
 (Enter /home/apps/g16/g16/l701.exe)
 ... and contract with generalized density number  0.
 Compute integral first derivatives.
 R6Disp: Adding Grimme-D3 dispersion energy 1st derivatives to the gradient.
 D1PCM: PCM CHGder 1st derivatives, ID1Alg=3 FixD1E=F DoIter=F DoCFld=F I1PDM=0.
 GePol: Maximum number of non-zero 1st derivatives   =     194
 Leave Link  701 at Fri Jan  4 11:00:54 2019, MaxMem=   268435456 cpu:              14.4 elap:               1.8
 (Enter /home/apps/g16/g16/l702.exe)
 L702 exits ... SP integral derivatives will be done elsewhere.
 Leave Link  702 at Fri Jan  4 11:00:54 2019, MaxMem=   268435456 cpu:               0.3 elap:               0.1
 (Enter /home/apps/g16/g16/l703.exe)
 Integral derivatives from FoFJK, PRISM(SPDF).
 Compute integral first derivatives, UseDBF=F ICtDFT=           0.
 Calling FoFJK, ICntrl=      2127 FMM=F ISym2X=0 I1Cent= 0 IOpClX= 0 NMat=1 NMatS=1 NMatT=0.
 FoFJK:  IHMeth= 1 ICntrl=    2127 DoSepK=F KAlg= 0 I1Cent=           0 FoldK=F
 IRaf=         0 NMat=       1 IRICut=       1 DoRegI=T DoRafI=F ISym2E= 0 IDoP0=0 IntGTp=1.
 FoFCou: FMM=F IPFlag=           0 FMFlag=      100000 FMFlg1=         800
         NFxFlg=           0 DoJE=F BraDBF=F KetDBF=F FulRan=T
         wScrn=  0.000000 ICntrl=      2127 IOpCl=  0 I1Cent=           0 NGrid=           0
         NMat0=    1 NMatS0=      1 NMatT0=    0 NMatD0=    1 NMtDS0=    0 NMtDT0=    0
 Symmetry not used in FoFCou.
 Leave Link  703 at Fri Jan  4 11:01:02 2019, MaxMem=   268435456 cpu:              64.6 elap:               8.1
 (Enter /home/apps/g16/g16/l716.exe)
 Dipole        =-2.03876078D-01 5.68628285D-01 6.06712669D-06
 ***** Axes restored to original set *****
 -------------------------------------------------------------------
 Center     Atomic                   Forces (Hartrees/Bohr)
 Number     Number              X              Y              Z
 -------------------------------------------------------------------
      1        6          -0.007674133   -0.013270029   -0.000023090
      2        6           0.000959511   -0.004932854    0.003459480
      3        6           0.015606605    0.005501179    0.010670133
      4        6           0.010866416    0.030901862   -0.005991339
      5        6          -0.005447378    0.007289921   -0.008337375
      6        6          -0.006605038   -0.001373341   -0.005104049
      7        1           0.004098904    0.007241161   -0.000071623
      8        1          -0.001586976    0.007042574   -0.004951553
      9        1          -0.006395817    0.000827235   -0.005951242
     10        1           0.002282418   -0.005298658    0.004638519
     11        1           0.006703173    0.001791785    0.004906128
     12        8          -0.009076477   -0.036907162    0.010577143
     13        1          -0.003731208    0.001186328   -0.003821133
 -------------------------------------------------------------------
 Cartesian Forces:  Max     0.036907162 RMS     0.010036991
 Leave Link  716 at Fri Jan  4 11:01:02 2019, MaxMem=   268435456 cpu:               0.4 elap:               0.1
 (Enter /home/apps/g16/g16/l103.exe)

 GradGradGradGradGradGradGradGradGradGradGradGradGradGradGradGradGradGrad
 Berny optimization.
 FormGI is forming the generalized inverse of G from B-inverse, IUseBI=4.
 Internal  Forces:  Max     0.037336805 RMS     0.006090247
 Search for a local minimum.
 Step number   1 out of a maximum of   68
 All quantities printed in internal units (Hartrees-Bohrs-Radians)
 RMS Force = .60902D-02 SwitMx=.10000D-02 MixMth= 1
 Mixed Optimization -- RFO/linear search
 Second derivative matrix not updated -- first step.
 ITU=  0
     Eigenvalues ---    0.01295   0.01997   0.02152   0.02154   0.02154
     Eigenvalues ---    0.02155   0.02155   0.02155   0.02156   0.02157
     Eigenvalues ---    0.16000   0.16000   0.16000   0.16000   0.16000
     Eigenvalues ---    0.16000   0.22000   0.22000   0.23486   0.25000
     Eigenvalues ---    0.33709   0.33718   0.33720   0.33725   0.33726
     Eigenvalues ---    0.40989   0.42121   0.42300   0.46412   0.46453
     Eigenvalues ---    0.46466   0.46497   0.55473
 RFO step:  Lambda=-5.90815149D-03 EMin= 1.29493786D-02
 Linear search not attempted -- first point.
 Iteration  1 RMS(Cart)=  0.02580687 RMS(Int)=  0.00038477
 Iteration  2 RMS(Cart)=  0.00055407 RMS(Int)=  0.00000453
 Iteration  3 RMS(Cart)=  0.00000042 RMS(Int)=  0.00000452
 ITry= 1 IFail=0 DXMaxC= 1.09D-01 DCOld= 1.00D+10 DXMaxT= 3.00D-01 DXLimC= 3.00D+00 Rises=F
 Variable       Old X    -DE/DX   Delta X   Delta X   Delta X     New X
                                 (Linear)    (Quad)   (Total)
    R1        2.63647   0.00423   0.00000   0.00907   0.00906   2.64553
    R2        2.63584   0.00346   0.00000   0.00759   0.00758   2.64343
    R3        2.07796  -0.00832   0.00000  -0.02425  -0.02425   2.05372
    R4        2.63562   0.00265   0.00000   0.00547   0.00547   2.64109
    R5        2.07805  -0.00868   0.00000  -0.02531  -0.02531   2.05274
    R6        2.63697  -0.00192   0.00000  -0.00432  -0.00432   2.63266
    R7        2.07809  -0.00853   0.00000  -0.02486  -0.02486   2.05323
    R8        2.63584   0.00386   0.00000   0.00812   0.00813   2.64396
    R9        2.70231  -0.03734   0.00000  -0.08979  -0.08979   2.61251
   R10        2.63643   0.00243   0.00000   0.00533   0.00534   2.64177
   R11        2.07825  -0.00740   0.00000  -0.02157  -0.02157   2.05668
   R12        2.07795  -0.00846   0.00000  -0.02466  -0.02466   2.05329
   R13        1.81414   0.00482   0.00000   0.00859   0.00859   1.82273
    A1        2.09437  -0.00214   0.00000  -0.00846  -0.00847   2.08590
    A2        2.09435   0.00117   0.00000   0.00485   0.00486   2.09920
    A3        2.09447   0.00097   0.00000   0.00361   0.00362   2.09809
    A4        2.09455   0.00272   0.00000   0.01222   0.01221   2.10676
    A5        2.09406  -0.00021   0.00000   0.00085   0.00086   2.09492
    A6        2.09458  -0.00252   0.00000  -0.01307  -0.01307   2.08151
    A7        2.09429  -0.00327   0.00000  -0.01498  -0.01498   2.07932
    A8        2.09462   0.00378   0.00000   0.02040   0.02040   2.11502
    A9        2.09427  -0.00051   0.00000  -0.00542  -0.00542   2.08885
   A10        2.09429   0.00424   0.00000   0.01633   0.01634   2.11063
   A11        2.09407  -0.01270   0.00000  -0.04950  -0.04950   2.04456
   A12        2.09483   0.00846   0.00000   0.03317   0.03317   2.12800
   A13        2.09448  -0.00228   0.00000  -0.00952  -0.00951   2.08497
   A14        2.09459   0.00084   0.00000   0.00296   0.00296   2.09755
   A15        2.09411   0.00144   0.00000   0.00656   0.00655   2.10067
   A16        2.09440   0.00072   0.00000   0.00441   0.00441   2.09881
   A17        2.09453   0.00044   0.00000   0.00265   0.00265   2.09719
   A18        2.09426  -0.00117   0.00000  -0.00707  -0.00707   2.08719
   A19        1.91114  -0.00471   0.00000  -0.02839  -0.02839   1.88275
    D1        0.00056  -0.00002   0.00000  -0.00057  -0.00057  -0.00001
    D2        3.14078   0.00002   0.00000   0.00072   0.00073   3.14150
    D3       -3.14112  -0.00001   0.00000  -0.00056  -0.00056   3.14150
    D4       -0.00091   0.00002   0.00000   0.00073   0.00074  -0.00017
    D5        0.00026  -0.00001   0.00000  -0.00032  -0.00032  -0.00007
    D6        3.14140   0.00001   0.00000   0.00020   0.00020  -3.14158
    D7       -3.14124  -0.00001   0.00000  -0.00033  -0.00033  -3.14158
    D8       -0.00010   0.00001   0.00000   0.00019   0.00019   0.00009
    D9       -0.00099   0.00003   0.00000   0.00105   0.00105   0.00005
   D10        3.14093   0.00002   0.00000   0.00071   0.00070  -3.14156
   D11       -3.14120  -0.00001   0.00000  -0.00026  -0.00025  -3.14146
   D12        0.00072  -0.00002   0.00000  -0.00060  -0.00060   0.00012
   D13        0.00060  -0.00002   0.00000  -0.00063  -0.00062  -0.00003
   D14       -3.14153  -0.00000   0.00000  -0.00009  -0.00010   3.14156
   D15       -3.14132  -0.00001   0.00000  -0.00028  -0.00028   3.14158
   D16       -0.00026   0.00001   0.00000   0.00025   0.00024  -0.00002
   D17        0.00023  -0.00001   0.00000  -0.00027  -0.00027  -0.00004
   D18       -3.14158   0.00000   0.00000   0.00010   0.00010  -3.14148
   D19       -3.14083  -0.00002   0.00000  -0.00079  -0.00080   3.14156
   D20        0.00054  -0.00001   0.00000  -0.00041  -0.00042   0.00012
   D21        3.14159  -0.00001   0.00000  -0.00017  -0.00017   3.14142
   D22       -0.00053   0.00001   0.00000   0.00036   0.00036  -0.00018
   D23       -0.00066   0.00002   0.00000   0.00075   0.00074   0.00009
   D24        3.14138   0.00001   0.00000   0.00022   0.00022  -3.14158
   D25        3.14116   0.00001   0.00000   0.00037   0.00037   3.14153
   D26        0.00001  -0.00000   0.00000  -0.00015  -0.00016  -0.00014
         Item               Value     Threshold  Converged?
 Maximum Force            0.037337     0.000450     NO 
 RMS     Force            0.006090     0.000300     NO 
 Maximum Displacement     0.108840     0.001800     NO 
 RMS     Displacement     0.025669     0.001200     NO 
 Predicted change in Energy=-3.005147D-03
 Lowest energy point so far.  Saving SCF results.
 GradGradGradGradGradGradGradGradGradGradGradGradGradGradGradGradGradGrad

 Leave Link  103 at Fri Jan  4 11:01:02 2019, MaxMem=   268435456 cpu:               0.6 elap:               0.1
 (Enter /home/apps/g16/g16/l202.exe)
                          Input orientation:                          
 ---------------------------------------------------------------------
 Center     Atomic      Atomic             Coordinates (Angstroms)
 Number     Number       Type             X           Y           Z
 ---------------------------------------------------------------------
      1          6           0       -2.564497   -0.552414   -0.001526
      2          6           0       -1.469749   -0.361868    0.849999
      3          6           0       -0.768610    0.847140    0.851433
      4          6           0       -1.172542    1.866521   -0.007955
      5          6           0       -2.264307    1.693610   -0.865685
      6          6           0       -2.958474    0.480191   -0.859002
      7          1           0       -3.104617   -1.495462    0.003103
      8          1           0       -1.156630   -1.158044    1.519349
      9          1           0        0.082097    1.003313    1.509035
     10          1           0       -2.569303    2.498152   -1.532162
     11          1           0       -3.806639    0.343669   -1.524268
     12          8           0       -0.450056    3.044663    0.027448
     13          1           0       -0.840331    3.650640   -0.613509
 ---------------------------------------------------------------------
                    Distance matrix (angstroms):
                    1          2          3          4          5
     1  C    0.000000
     2  C    1.399955   0.000000
     3  C    2.431357   1.397604   0.000000
     4  C    2.790847   2.406270   1.393143   0.000000
     5  C    2.425183   2.792828   2.429427   1.399125   0.000000
     6  C    1.398841   2.417860   2.802810   2.415729   1.397962
     7  H    1.086780   2.162188   3.415314   3.877624   3.410439
     8  H    2.159152   1.086263   2.148821   3.388348   3.879081
     9  H    3.421482   2.169395   1.086524   2.149536   3.409020
    10  H    3.413038   3.881163   3.413190   2.161737   1.088348
    11  H    2.159774   3.405287   3.889352   3.399522   2.152873
    12  O    4.172609   3.649770   2.368446   1.382483   2.431983
    13  H    4.583987   4.317203   3.163987   1.913149   2.433365
                    6          7          8          9         10
     6  C    0.000000
     7  H    2.160506   0.000000
     8  H    3.403969   2.491486   0.000000
     9  H    3.889258   4.320515   2.491187   0.000000
    10  H    2.162584   4.311908   4.967407   4.302714   0.000000
    11  H    1.086555   2.491606   4.305960   4.975774   2.484525
    12  O    3.695196   5.259280   4.515281   2.577867   2.687428
    13  H    3.820804   5.655931   5.269968   3.516306   2.271892
                   11         12         13
    11  H    0.000000
    12  O    4.579284   0.000000
    13  H    4.534812   0.964546   0.000000
 Stoichiometry    C6H6O
 Framework group  C1[X(C6H6O)]
 Deg. of freedom    33
 Full point group                 C1      NOp   1
 RotChk:  IX=2 Diff= 3.01D-02
 Largest Abelian subgroup         C1      NOp   1
 Largest concise Abelian subgroup C1      NOp   1
                         Standard orientation:                         
 ---------------------------------------------------------------------
 Center     Atomic      Atomic             Coordinates (Angstroms)
 Number     Number       Type             X           Y           Z
 ---------------------------------------------------------------------
      1          6           0       -1.857321    0.026781    0.000005
      2          6           0       -1.171622   -1.193749    0.000004
      3          6           0        0.225576   -1.227428   -0.000028
      4          6           0        0.933003   -0.027264    0.000006
      5          6           0        0.264258    1.201691    0.000036
      6          6           0       -1.133530    1.223811   -0.000018
      7          1           0       -2.943952    0.044761   -0.000053
      8          1           0       -1.725272   -2.128329    0.000107
      9          1           0        0.765563   -2.170268   -0.000062
     10          1           0        0.829123    2.131976   -0.000044
     11          1           0       -1.654993    2.177057   -0.000005
     12          8           0        2.313092   -0.108582    0.000018
     13          1           0        2.662614    0.790408   -0.000115
 ---------------------------------------------------------------------
 Rotational constants (GHZ):           5.6192119           2.6093152           1.7818857
 Leave Link  202 at Fri Jan  4 11:01:03 2019, MaxMem=   268435456 cpu:               0.0 elap:               0.0
 (Enter /home/apps/g16/g16/l301.exe)
 Basis read from rwf:  (5D, 7F)
 No pseudopotential information found on rwf file.
 There are   169 symmetry adapted cartesian basis functions of A   symmetry.
 There are   161 symmetry adapted basis functions of A   symmetry.
   161 basis functions,   272 primitive gaussians,   169 cartesian basis functions
    25 alpha electrons       25 beta electrons
       nuclear repulsion energy       270.3640690756 Hartrees.
 IExCor=  402 DFT=T Ex+Corr=B3LYP ExCW=0 ScaHFX=  0.200000
 ScaDFX=  0.800000  0.720000  1.000000  0.810000 ScalE2=  1.000000  1.000000
 IRadAn=      5 IRanWt=     -1 IRanGd=            0 ICorTp=0 IEmpDi=131
 NAtoms=   13 NActive=   13 NUniq=   13 SFac= 1.00D+00 NAtFMM=   60 NAOKFM=F Big=F
 Integral buffers will be    131072 words long.
 Raffenetti 2 integral format.
 Two-electron integral symmetry is turned on.
 R6Disp:  Grimme-D3 Dispersion energy=       -0.0065495155 Hartrees.
 Nuclear repulsion after empirical dispersion term =      270.3575195601 Hartrees.
 No density basis found on file   724.
 ------------------------------------------------------------------------------
 Polarizable Continuum Model (PCM)
 =================================
 Model                : PCM.
 Atomic radii         : UFF (Universal Force Field).
 Polarization charges : Total charges.
 Charge compensation  : None.
 Solution method      : On-the-fly selection.
 Cavity type          : Scaled VdW (van der Waals Surface) (Alpha=1.100).
 Cavity algorithm     : GePol (No added spheres)
                        Default sphere list used, NSphG=   13.
                        Lebedev-Laikov grids with approx.  5.0 points / Ang**2.
                        Smoothing algorithm: York/Karplus (Gamma=1.0000).
                        Polarization charges: spherical gaussians, with
                                              point-specific exponents (IZeta= 3).
                        Self-potential: point-specific (ISelfS= 7).
                        Self-field    : sphere-specific E.n sum rule (ISelfD= 2).
 1st derivatives      : Analytical E(r).r(x)/FMM algorithm (CHGder, D1EAlg=3).
                        Cavity 1st derivative terms included.
 Solvent              : CarbonTetraChloride, Eps=   2.228000 Eps(inf)=   2.131892
 ------------------------------------------------------------------------------
 Spheres list:
 ISph  on   Nord     Re0    Alpha      Xe            Ye            Ze
    1   C      1    1.9255  1.100     -1.857321      0.026781      0.000005
    2   C      2    1.9255  1.100     -1.171622     -1.193749      0.000004
    3   C      3    1.9255  1.100      0.225576     -1.227428     -0.000028
    4   C      4    1.9255  1.100      0.933003     -0.027264      0.000006
    5   C      5    1.9255  1.100      0.264258      1.201691      0.000036
    6   C      6    1.9255  1.100     -1.133530      1.223811     -0.000018
    7   H      7    1.4430  1.100     -2.943952      0.044761     -0.000053
    8   H      8    1.4430  1.100     -1.725272     -2.128329      0.000107
    9   H      9    1.4430  1.100      0.765563     -2.170268     -0.000062
   10   H     10    1.4430  1.100      0.829123      2.131976     -0.000044
   11   H     11    1.4430  1.100     -1.654993      2.177057     -0.000005
   12   O     12    1.7500  1.100      2.313092     -0.108582      0.000018
   13   H     13    1.4430  1.100      2.662614      0.790408     -0.000115
 ------------------------------------------------------------------------------
 GePol: Number of generator spheres                  =      13
 GePol: Total number of spheres                      =      13
 GePol: Number of exposed spheres                    =      13 (100.00%)
 GePol: Number of points                             =    1152
 GePol: Average weight of points                     =       0.13
 GePol: Minimum weight of points                     =   0.39D-09
 GePol: Maximum weight of points                     =    0.20577
 GePol: Number of points with low weight             =      53
 GePol: Fraction of low-weight points (<1% of avg)   =       4.60%
 GePol: Cavity surface area                          =    154.610 Ang**2
 GePol: Cavity volume                                =    147.065 Ang**3
 Leave Link  301 at Fri Jan  4 11:01:03 2019, MaxMem=   268435456 cpu:               0.9 elap:               0.1
 (Enter /home/apps/g16/g16/l302.exe)
 NPDir=0 NMtPBC=     1 NCelOv=     1 NCel=       1 NClECP=     1 NCelD=      1
         NCelK=      1 NCelE2=     1 NClLst=     1 CellRange=     0.0.
 One-electron integrals computed using PRISM.
 One-electron integral symmetry used in STVInt
 NBasis=   161 RedAO= T EigKep=  2.61D-05  NBF=   161
 NBsUse=   161 1.00D-06 EigRej= -1.00D+00 NBFU=   161
 Precomputing XC quadrature grid using
 IXCGrd= 4 IRadAn=           5 IRanWt=          -1 IRanGd=           0 AccXCQ= 0.00D+00.
 Generated NRdTot=       0 NPtTot=           0 NUsed=           0 NTot=          32
 NSgBfM=   168   168   168   168   168 MxSgAt=    13 MxSgA2=    13.
 Leave Link  302 at Fri Jan  4 11:01:03 2019, MaxMem=   268435456 cpu:               3.0 elap:               0.4
 (Enter /home/apps/g16/g16/l303.exe)
 DipDrv:  MaxL=1.
 Leave Link  303 at Fri Jan  4 11:01:04 2019, MaxMem=   268435456 cpu:               0.3 elap:               0.1
 (Enter /home/apps/g16/g16/l401.exe)
 Initial guess from the checkpoint file:  "fenol_b3lypd3_n07d_ccl4_of.chk"
 B after Tr=    -0.000000    0.000000    0.000000
         Rot=    0.999960   -0.000001    0.000000   -0.008995 Ang=  -1.03 deg.
 Guess basis will be translated and rotated to current coordinates.
 JPrj=2 DoOrth=T DoCkMO=T.
 Generating alternative initial guess.
 ExpMin= 5.00D-02 ExpMax= 5.48D+03 ExpMxC= 8.25D+02 IAcc=2 IRadAn=         4 AccDes= 0.00D+00
 Harris functional with IExCor=  402 and IRadAn=       4 diagonalized for initial guess.
 HarFok:  IExCor=  402 AccDes= 0.00D+00 IRadAn=         4 IDoV= 1 UseB2=F ITyADJ=14
 ICtDFT=  3500011 ScaDFX=  1.000000  1.000000  1.000000  1.000000
 FoFCou: FMM=F IPFlag=           0 FMFlag=      100000 FMFlg1=           0
         NFxFlg=           0 DoJE=T BraDBF=F KetDBF=T FulRan=T
         wScrn=  0.000000 ICntrl=       500 IOpCl=  0 I1Cent=   200000004 NGrid=           0
         NMat0=    1 NMatS0=      1 NMatT0=    0 NMatD0=    1 NMtDS0=    0 NMtDT0=    0
 Petite list used in FoFCou.
 Harris En= -307.513508175118    
 Leave Link  401 at Fri Jan  4 11:01:05 2019, MaxMem=   268435456 cpu:               9.2 elap:               1.2
 (Enter /home/apps/g16/g16/l502.exe)
 Integral symmetry usage will be decided dynamically.
 Closed shell SCF:
 Using DIIS extrapolation, IDIIS=  1040.
 NGot=   268435456 LenX=   268375197 LenY=   268346195
 Requested convergence on RMS density matrix=1.00D-08 within 128 cycles.
 Requested convergence on MAX density matrix=1.00D-06.
 Requested convergence on             energy=1.00D-06.
 No special actions if energy rises.
 Fock matrices will be formed incrementally for  20 cycles.

 Cycle   1  Pass 1  IDiag  1:
 FoFJK:  IHMeth= 1 ICntrl=       0 DoSepK=F KAlg= 0 I1Cent=           0 FoldK=F
 IRaf= 960000000 NMat=       1 IRICut=       1 DoRegI=T DoRafI=F ISym2E= 0 IDoP0=0 IntGTp=1.
 FoFCou: FMM=F IPFlag=           0 FMFlag=      100000 FMFlg1=           0
         NFxFlg=           0 DoJE=F BraDBF=F KetDBF=F FulRan=T
         wScrn=  0.000000 ICntrl=         0 IOpCl=  0 I1Cent=           0 NGrid=           0
         NMat0=    1 NMatS0=      1 NMatT0=    0 NMatD0=    1 NMtDS0=    0 NMtDT0=    0
 Symmetry not used in FoFCou.
 Inv3:  Mode=1 IEnd=     3981312.
 Iteration    1 A*A^-1 deviation from unit magnitude is 3.22D-15 for   1133.
 Iteration    1 A*A^-1 deviation from orthogonality  is 1.91D-15 for    709    137.
 Iteration    1 A^-1*A deviation from unit magnitude is 3.00D-15 for   1133.
 Iteration    1 A^-1*A deviation from orthogonality  is 1.25D-15 for    723    155.
 E= -307.498824896201    
 DIIS: error= 2.05D-03 at cycle   1 NSaved=   1.
 NSaved= 1 IEnMin= 1 EnMin= -307.498824896201     IErMin= 1 ErrMin= 2.05D-03
 ErrMax= 2.05D-03  0.00D+00 EMaxC= 1.00D-01 BMatC= 1.48D-03 BMatP= 1.48D-03
 IDIUse=3 WtCom= 9.79D-01 WtEn= 2.05D-02
 Coeff-Com:  0.100D+01
 Coeff-En:   0.100D+01
 Coeff:      0.100D+01
 Gap=     0.592 Goal=   None    Shift=    0.000
 GapD=    0.592 DampG=2.000 DampE=1.000 DampFc=2.0000 IDamp=-1.
 RMSDP=5.72D-04 MaxDP=9.09D-03              OVMax= 1.23D-02

 Cycle   2  Pass 1  IDiag  1:
 RMSU=  5.71D-04    CP:  1.00D+00
 E= -307.500266806087     Delta-E=       -0.001441909886 Rises=F Damp=F
 DIIS: error= 5.98D-04 at cycle   2 NSaved=   2.
 NSaved= 2 IEnMin= 2 EnMin= -307.500266806087     IErMin= 2 ErrMin= 5.98D-04
 ErrMax= 5.98D-04  0.00D+00 EMaxC= 1.00D-01 BMatC= 4.24D-05 BMatP= 1.48D-03
 IDIUse=3 WtCom= 9.94D-01 WtEn= 5.98D-03
 Coeff-Com:  0.376D-01 0.962D+00
 Coeff-En:   0.000D+00 0.100D+01
 Coeff:      0.374D-01 0.963D+00
 Gap=     0.213 Goal=   None    Shift=    0.000
 RMSDP=7.13D-05 MaxDP=1.59D-03 DE=-1.44D-03 OVMax= 3.26D-03

 Cycle   3  Pass 1  IDiag  1:
 RMSU=  7.09D-05    CP:  1.00D+00  1.01D+00
 E= -307.500280243028     Delta-E=       -0.000013436941 Rises=F Damp=F
 DIIS: error= 2.94D-04 at cycle   3 NSaved=   3.
 NSaved= 3 IEnMin= 3 EnMin= -307.500280243028     IErMin= 3 ErrMin= 2.94D-04
 ErrMax= 2.94D-04  0.00D+00 EMaxC= 1.00D-01 BMatC= 2.60D-05 BMatP= 4.24D-05
 IDIUse=3 WtCom= 9.97D-01 WtEn= 2.94D-03
 Coeff-Com: -0.746D-02 0.430D+00 0.577D+00
 Coeff-En:   0.000D+00 0.370D+00 0.630D+00
 Coeff:     -0.743D-02 0.430D+00 0.578D+00
 Gap=     0.214 Goal=   None    Shift=    0.000
 RMSDP=4.24D-05 MaxDP=1.20D-03 DE=-1.34D-05 OVMax= 3.00D-03

 Cycle   4  Pass 1  IDiag  1:
 RMSU=  3.19D-05    CP:  1.00D+00  1.02D+00  6.21D-01
 E= -307.500300481863     Delta-E=       -0.000020238835 Rises=F Damp=F
 DIIS: error= 1.68D-04 at cycle   4 NSaved=   4.
 NSaved= 4 IEnMin= 4 EnMin= -307.500300481863     IErMin= 4 ErrMin= 1.68D-04
 ErrMax= 1.68D-04  0.00D+00 EMaxC= 1.00D-01 BMatC= 5.92D-06 BMatP= 2.60D-05
 IDIUse=3 WtCom= 9.98D-01 WtEn= 1.68D-03
 Coeff-Com: -0.728D-02 0.153D+00 0.353D+00 0.501D+00
 Coeff-En:   0.000D+00 0.000D+00 0.208D+00 0.792D+00
 Coeff:     -0.726D-02 0.153D+00 0.353D+00 0.502D+00
 Gap=     0.213 Goal=   None    Shift=    0.000
 RMSDP=1.68D-05 MaxDP=4.74D-04 DE=-2.02D-05 OVMax= 1.27D-03

 Cycle   5  Pass 1  IDiag  1:
 RMSU=  7.36D-06    CP:  1.00D+00  1.02D+00  7.20D-01  5.83D-01
 E= -307.500307136510     Delta-E=       -0.000006654647 Rises=F Damp=F
 DIIS: error= 2.58D-05 at cycle   5 NSaved=   5.
 NSaved= 5 IEnMin= 5 EnMin= -307.500307136510     IErMin= 5 ErrMin= 2.58D-05
 ErrMax= 2.58D-05  0.00D+00 EMaxC= 1.00D-01 BMatC= 1.41D-07 BMatP= 5.92D-06
 IDIUse=1 WtCom= 1.00D+00 WtEn= 0.00D+00
 Coeff-Com: -0.251D-02 0.427D-01 0.124D+00 0.220D+00 0.616D+00
 Coeff:     -0.251D-02 0.427D-01 0.124D+00 0.220D+00 0.616D+00
 Gap=     0.213 Goal=   None    Shift=    0.000
 RMSDP=3.25D-06 MaxDP=9.19D-05 DE=-6.65D-06 OVMax= 2.20D-04

 Cycle   6  Pass 1  IDiag  1:
 RMSU=  2.70D-06    CP:  1.00D+00  1.02D+00  7.13D-01  6.08D-01  7.90D-01
 E= -307.500307265036     Delta-E=       -0.000000128526 Rises=F Damp=F
 DIIS: error= 1.33D-05 at cycle   6 NSaved=   6.
 NSaved= 6 IEnMin= 6 EnMin= -307.500307265036     IErMin= 6 ErrMin= 1.33D-05
 ErrMax= 1.33D-05  0.00D+00 EMaxC= 1.00D-01 BMatC= 3.28D-08 BMatP= 1.41D-07
 IDIUse=1 WtCom= 1.00D+00 WtEn= 0.00D+00
 Coeff-Com: -0.272D-03-0.324D-02 0.821D-02 0.393D-01 0.356D+00 0.600D+00
 Coeff:     -0.272D-03-0.324D-02 0.821D-02 0.393D-01 0.356D+00 0.600D+00
 Gap=     0.213 Goal=   None    Shift=    0.000
 RMSDP=1.11D-06 MaxDP=2.66D-05 DE=-1.29D-07 OVMax= 5.61D-05

 Cycle   7  Pass 1  IDiag  1:
 RMSU=  6.46D-07    CP:  1.00D+00  1.02D+00  7.17D-01  6.11D-01  8.48D-01
                    CP:  7.37D-01
 E= -307.500307298132     Delta-E=       -0.000000033096 Rises=F Damp=F
 DIIS: error= 1.16D-06 at cycle   7 NSaved=   7.
 NSaved= 7 IEnMin= 7 EnMin= -307.500307298132     IErMin= 7 ErrMin= 1.16D-06
 ErrMax= 1.16D-06  0.00D+00 EMaxC= 1.00D-01 BMatC= 5.37D-10 BMatP= 3.28D-08
 IDIUse=1 WtCom= 1.00D+00 WtEn= 0.00D+00
 Coeff-Com:  0.233D-04-0.315D-02-0.219D-02 0.654D-02 0.110D+00 0.202D+00
 Coeff-Com:  0.687D+00
 Coeff:      0.233D-04-0.315D-02-0.219D-02 0.654D-02 0.110D+00 0.202D+00
 Coeff:      0.687D+00
 Gap=     0.213 Goal=   None    Shift=    0.000
 RMSDP=2.27D-07 MaxDP=6.04D-06 DE=-3.31D-08 OVMax= 9.58D-06

 Cycle   8  Pass 1  IDiag  1:
 RMSU=  1.99D-07    CP:  1.00D+00  1.02D+00  7.18D-01  6.13D-01  8.56D-01
                    CP:  7.44D-01  9.20D-01
 E= -307.500307298526     Delta-E=       -0.000000000395 Rises=F Damp=F
 DIIS: error= 1.27D-06 at cycle   8 NSaved=   8.
 NSaved= 8 IEnMin= 8 EnMin= -307.500307298526     IErMin= 7 ErrMin= 1.16D-06
 ErrMax= 1.27D-06  0.00D+00 EMaxC= 1.00D-01 BMatC= 2.29D-10 BMatP= 5.37D-10
 IDIUse=1 WtCom= 1.00D+00 WtEn= 0.00D+00
 Coeff-Com:  0.391D-04-0.115D-02-0.220D-02-0.130D-02 0.134D-01 0.254D-01
 Coeff-Com:  0.407D+00 0.559D+00
 Coeff:      0.391D-04-0.115D-02-0.220D-02-0.130D-02 0.134D-01 0.254D-01
 Coeff:      0.407D+00 0.559D+00
 Gap=     0.213 Goal=   None    Shift=    0.000
 RMSDP=9.08D-08 MaxDP=2.90D-06 DE=-3.95D-10 OVMax= 3.26D-06

 Cycle   9  Pass 1  IDiag  1:
 RMSU=  5.67D-08    CP:  1.00D+00  1.02D+00  7.18D-01  6.13D-01  8.59D-01
                    CP:  7.48D-01  9.52D-01  7.26D-01
 E= -307.500307298725     Delta-E=       -0.000000000198 Rises=F Damp=F
 DIIS: error= 2.97D-07 at cycle   9 NSaved=   9.
 NSaved= 9 IEnMin= 9 EnMin= -307.500307298725     IErMin= 9 ErrMin= 2.97D-07
 ErrMax= 2.97D-07  0.00D+00 EMaxC= 1.00D-01 BMatC= 1.33D-11 BMatP= 2.29D-10
 IDIUse=1 WtCom= 1.00D+00 WtEn= 0.00D+00
 Coeff-Com:  0.187D-04-0.313D-03-0.912D-03-0.112D-02-0.206D-02-0.519D-02
 Coeff-Com:  0.136D+00 0.261D+00 0.613D+00
 Coeff:      0.187D-04-0.313D-03-0.912D-03-0.112D-02-0.206D-02-0.519D-02
 Coeff:      0.136D+00 0.261D+00 0.613D+00
 Gap=     0.213 Goal=   None    Shift=    0.000
 RMSDP=2.38D-08 MaxDP=9.94D-07 DE=-1.98D-10 OVMax= 1.34D-06

 Cycle  10  Pass 1  IDiag  1:
 RMSU=  1.77D-08    CP:  1.00D+00  1.02D+00  7.18D-01  6.13D-01  8.60D-01
                    CP:  7.50D-01  9.69D-01  7.23D-01  8.28D-01
 E= -307.500307298736     Delta-E=       -0.000000000011 Rises=F Damp=F
 DIIS: error= 8.56D-08 at cycle  10 NSaved=  10.
 NSaved=10 IEnMin=10 EnMin= -307.500307298736     IErMin=10 ErrMin= 8.56D-08
[...]
 ! A3    A(6,1,7)              120.3225         -DE/DX =    0.0                 !
 ! A4    A(1,2,3)              120.7099         -DE/DX =    0.0                 !
 ! A5    A(1,2,8)              120.0151         -DE/DX =    0.0                 !
 ! A6    A(3,2,8)              119.275          -DE/DX =    0.0                 !
 ! A7    A(2,3,4)              119.5391         -DE/DX =    0.0001              !
 ! A8    A(2,3,9)              121.4354         -DE/DX =    0.0                 !
 ! A9    A(4,3,9)              119.0255         -DE/DX =   -0.0001              !
 ! A10   A(3,4,5)              120.2754         -DE/DX =   -0.0002              !
 ! A11   A(3,4,12)             117.1166         -DE/DX =    0.0001              !
 ! A12   A(5,4,12)             122.608          -DE/DX =    0.0                 !
 ! A13   A(4,5,6)              119.5996         -DE/DX =    0.0001              !
 ! A14   A(4,5,10)             119.9898         -DE/DX =    0.0                 !
 ! A15   A(6,5,10)             120.4106         -DE/DX =   -0.0001              !
 ! A16   A(1,6,5)              120.5772         -DE/DX =    0.0                 !
 ! A17   A(1,6,11)             120.1251         -DE/DX =    0.0                 !
 ! A18   A(5,6,11)             119.2977         -DE/DX =    0.0                 !
 ! A19   A(4,12,13)            110.1084         -DE/DX =    0.0                 !
 ! D1    D(6,1,2,3)             -0.0007         -DE/DX =    0.0                 !
 ! D2    D(6,1,2,8)           -179.9991         -DE/DX =    0.0                 !
 ! D3    D(7,1,2,3)            179.999          -DE/DX =    0.0                 !
 ! D4    D(7,1,2,8)              0.0006         -DE/DX =    0.0                 !
 ! D5    D(2,1,6,5)             -0.0009         -DE/DX =    0.0                 !
 ! D6    D(2,1,6,11)           180.0003         -DE/DX =    0.0                 !
 ! D7    D(7,1,6,5)           -180.0006         -DE/DX =    0.0                 !
 ! D8    D(7,1,6,11)             0.0006         -DE/DX =    0.0                 !
 ! D9    D(1,2,3,4)              0.0017         -DE/DX =    0.0                 !
 ! D10   D(1,2,3,9)            180.0011         -DE/DX =    0.0                 !
 ! D11   D(8,2,3,4)            180.0001         -DE/DX =    0.0                 !
 ! D12   D(8,2,3,9)             -0.0005         -DE/DX =    0.0                 !
 ! D13   D(2,3,4,5)             -0.0012         -DE/DX =    0.0                 !
 ! D14   D(2,3,4,12)          -180.0003         -DE/DX =    0.0                 !
 ! D15   D(9,3,4,5)           -180.0006         -DE/DX =    0.0                 !
 ! D16   D(9,3,4,12)             0.0003         -DE/DX =    0.0                 !
 ! D17   D(3,4,5,6)             -0.0004         -DE/DX =    0.0                 !
 ! D18   D(3,4,5,10)           180.0004         -DE/DX =    0.0                 !
 ! D19   D(12,4,5,6)           179.9986         -DE/DX =    0.0                 !
 ! D20   D(12,4,5,10)           -0.0006         -DE/DX =    0.0                 !
 ! D21   D(3,4,12,13)          179.9959         -DE/DX =    0.0                 !
 ! D22   D(5,4,12,13)           -0.0032         -DE/DX =    0.0                 !
 ! D23   D(4,5,6,1)              0.0015         -DE/DX =    0.0                 !
 ! D24   D(4,5,6,11)          -179.9998         -DE/DX =    0.0                 !
 ! D25   D(10,5,6,1)          -179.9993         -DE/DX =    0.0                 !
 ! D26   D(10,5,6,11)           -0.0005         -DE/DX =    0.0                 !
 --------------------------------------------------------------------------------
 GradGradGradGradGradGradGradGradGradGradGradGradGradGradGradGradGradGrad

 Leave Link  103 at Fri Jan  4 11:09:04 2019, MaxMem=   268435456 cpu:               0.9 elap:               0.2
 (Enter /home/apps/g16/g16/l9999.exe)

 ----------------------------------------------------------------------

 Electric dipole moment (input orientation):
 (Debye = 10**-18 statcoulomb cm , SI units = C m)
                  (au)            (Debye)         (10**-30 SI)
   Tot        0.571702D+00      0.145312D+01      0.484709D+01
   x         -0.359348D+00     -0.913370D+00     -0.304668D+01
   y          0.185934D+00      0.472598D+00      0.157642D+01
   z         -0.403908D+00     -0.102663D+01     -0.342447D+01

 Dipole polarizability, Alpha (input orientation).
 (esu units = cm**3 , SI units = C**2 m**2 J**-1)
 Alpha(0;0):
               (au)            (10**-24 esu)      (10**-40 SI)
   iso        0.821911D+02      0.121795D+02      0.135515D+02
   aniso      0.545166D+02      0.807852D+01      0.898857D+01
   xx         0.785608D+02      0.116415D+02      0.129529D+02
   yx         0.145596D+02      0.215751D+01      0.240055D+01
   yy         0.973886D+02      0.144315D+02      0.160572D+02
   zx         0.205536D+02      0.304572D+01      0.338882D+01
   zy        -0.129338D+02     -0.191659D+01     -0.213249D+01
   zz         0.706239D+02      0.104654D+02      0.116443D+02

 ----------------------------------------------------------------------

 Dipole orientation:
     6         -3.85218705          1.56912003          2.70576923
     6         -3.22792116          0.45521229          0.38884890
     6         -1.93878464         -1.84561343          0.30367802
     6         -1.26535566         -3.04795205          2.56234760
     6         -1.87963591         -1.95191278          4.89231327
     6         -3.17090999          0.35286314          4.95058926
     1         -4.85523086          3.35939627          2.76016546
     1         -3.74684343          1.38168875         -1.36977606
     1         -1.44335121         -2.72957663         -1.48114320
     1         -1.35187570         -2.89414746          6.64268960
     1         -3.64294398          1.19510883          6.76383567
     8         -0.00401726         -5.29916841          2.36958209
     1          0.36400691         -5.95606202          4.03097640

 Electric dipole moment (dipole orientation):
 (Debye = 10**-18 statcoulomb cm , SI units = C m)
                  (au)            (Debye)         (10**-30 SI)
   Tot        0.571702D+00      0.145312D+01      0.484709D+01
   x          0.000000D+00      0.000000D+00      0.000000D+00
   y          0.000000D+00      0.000000D+00      0.000000D+00
   z          0.571702D+00      0.145312D+01      0.484709D+01

 Dipole polarizability, Alpha (dipole orientation).
 (esu units = cm**3 , SI units = C**2 m**2 J**-1)
 Alpha(0;0):
               (au)            (10**-24 esu)      (10**-40 SI)
   iso        0.821911D+02      0.121795D+02      0.135515D+02
   aniso      0.545166D+02      0.807852D+01      0.898857D+01
   xx         0.604674D+02      0.896035D+01      0.996973D+01
   yx        -0.251536D+02     -0.372738D+01     -0.414727D+01
   yy         0.912696D+02      0.135248D+02      0.150483D+02
   zx         0.451389D+00      0.668889D-01      0.744240D-01
   zy        -0.812556D+00     -0.120408D+00     -0.133972D+00
   zz         0.948363D+02      0.140533D+02      0.156364D+02

 ----------------------------------------------------------------------
 1\1\GINC-XEON48\Freq\RB3LYP\Gen\C6H6O1\JPABLO\04-Jan-2019\0\\#P Geom=A
 llCheck Guess=TCheck SCRF=Check GenChk RB3LYP/ChkBas Freq\\Title Card 
 Required\\0,1\C,-2.5660005307,-0.5573966186,-0.0003333653\C,-1.4708727
 317,-0.3636565561,0.8499445805\C,-0.7724461663,0.8454825105,0.84897813
 17\C,-1.1736436238,1.8737115597,-0.0125234253\C,-2.2679170405,1.691719
 1575,-0.8679247187\C,-2.958517552,0.4758550795,-0.8568721051\H,-3.1054
 830096,-1.5002712454,0.0048466181\H,-1.1556796368,-1.1590998652,1.5205
 829499\H,0.0787279053,1.008492896,1.5036012413\H,-2.575773489,2.494125
 1116,-1.5357068295\H,-3.8069861285,0.3399277215,-1.5227256783\O,-0.453
 8784323,3.0379460474,0.0274440186\H,-0.8151848243,3.6732751817,-0.6030
 48208\\Version=ES64L-G16RevA.03\State=1-A\HF=-307.5005777\RMSD=3.040e-
 09\RMSF=1.540e-04\ZeroPoint=0.1043774\Thermal=0.1099497\Dipole=-0.3593
 475,0.1859345,-0.4039076\DipoleDeriv=-0.1773469,0.0627223,-0.0309833,0
 .0791281,-0.0881313,0.0235659,-0.0391901,0.0093768,-0.216399,0.0896103
 ,0.0619332,0.1674312,0.1393312,0.121132,-0.0100535,0.1286991,-0.076987
 2,0.0100441,-0.066264,0.0772369,0.0596284,-0.1771438,-0.3403556,-0.072
 9244,0.1869288,0.1471013,-0.0918269,0.4981518,0.7031573,-0.0067645,0.7
 028692,1.3759726,-0.0309689,-0.0066243,-0.0307288,0.1088149,-0.2359462
 ,-0.2809178,0.1057965,-0.0069312,-0.2035663,-0.0020764,-0.0312997,-0.2
 390624,-0.1031951,0.0141903,0.1030549,0.077783,-0.0028759,0.1675325,-0
 .154045,0.1307746,-0.0624235,0.0089976,0.0584986,-0.0981521,-0.0382629
 ,-0.0986067,-0.0572894,0.0231996,-0.0380382,0.0235924,0.1148125,0.0875
 22,0.0287202,-0.0619804,0.0252156,-0.0150501,0.1006801,-0.0602258,0.10
 37027,0.0385834,0.0155889,-0.0409281,-0.1053843,-0.0438332,0.0861608,-
 0.0004078,-0.1039323,0.0021064,0.070165,0.1009229,-0.0060133,-0.050702
 3,0.0029884,-0.0567424,0.1125506,-0.0552096,0.1047693,0.0628447,-0.012
 6646,-0.0364156,-0.1167356,-0.0298375,0.0821946,0.0048009,-0.1200199,-
 0.0008875,0.0399989,-0.6373169,-0.6236943,0.0944758,-0.627281,-1.46428
 03,-0.0028493,0.0962652,0.0002448,-0.3025547,0.2650541,0.0492965,-0.09
 43016,0.0369769,0.392423,0.0085284,-0.088128,0.0191957,0.2597146\Polar
 =78.5608006,14.5595935,97.3886364,20.5535611,-12.9337826,70.6238989\Qu
 adrupole=-2.2165939,2.8397709,-0.623177,-0.3817536,2.0301377,-3.924618
 1\PG=C01 [X(C6H6O1)]\NImag=0\\0.47650881,0.15301367,0.65567789,0.22778
 584,-0.13338047,0.38839868,-0.22710685,-0.05791398,-0.11483363,0.47019
 857,-0.01451805,-0.12144698,0.01776979,0.09914739,0.63762655,-0.136547
 63,-0.01976460,-0.16905473,0.24084115,-0.16605965,0.42579061,-0.022409
 67,-0.02310036,-0.01385558,-0.15572194,-0.13095971,-0.01991695,0.51511
 177,-0.05432689,0.01306085,-0.05003454,-0.08821503,-0.28126569,0.03595
 845,0.14145412,0.61433383,0.00176946,-0.02302586,0.02002660,-0.0413053
 8,-0.00101235,-0.09214745,0.26856392,-0.12362866,0.41691026,-0.0279090
 9,0.01952484,-0.02987819,0.04155855,0.01624519,0.02695998,-0.12697923,
 0.01040752,-0.05674410,0.48474735,0.01955779,-0.00599239,0.01758235,-0
 .01972168,-0.04945127,0.00818168,0.06055472,-0.20305353,0.12025583,0.0
 9812789,0.61310156,-0.02989409,0.01755358,-0.03930133,0.04495729,0.039
 29132,0.02021357,-0.08183726,0.07688233,-0.17664510,0.23444879,-0.1433
 9737,0.43144958,0.03746932,-0.01911208,0.03568460,-0.03571878,-0.02363
 088,-0.01641531,-0.00169450,0.04716230,-0.03139814,-0.21394460,-0.0459
 4906,-0.10506039,0.46123108,0.01299115,-0.04720688,0.03849508,-0.02675
 546,-0.02135866,-0.01398944,0.01897321,0.03791179,0.00110357,0.0068335
 4,-0.12029788,0.03313399,0.10949741,0.64773609,0.01962078,0.01072835,0
 .01887200,-0.01485245,-0.01128727,-0.01026707,-0.01729238,0.02548573,-
 0.02038697,-0.13147280,-0.01251997,-0.17334325,0.24043807,-0.16940791,
 0.41263092,-0.11765917,0.05116333,-0.07461016,-0.00513590,0.02045549,-
 0.02012929,-0.00257989,-0.00447992,0.00235045,-0.02559115,-0.02229102,
 -0.01199270,-0.15139855,-0.12812109,-0.01763830,0.50885506,0.00770355,
 -0.23137734,0.09192014,0.05371969,0.03903821,0.03008350,-0.00674026,-0
 .05368985,0.01968195,-0.05863343,0.01804098,-0.05915613,-0.08511199,-0
 .27807857,0.03706038,0.12022864,0.59531190,-0.05286342,0.12950973,-0.1
 7152862,-0.03677406,0.00131238,-0.02616123,0.00348158,0.02163671,-0.01
 052139,0.00619283,-0.02772219,0.02039770,-0.03915942,-0.00013973,-0.09
 068802,0.26459544,-0.12714636,0.42587166,-0.11841757,-0.12778118,-0.01
 036639,-0.00810408,-0.02146138,0.00224134,-0.00053506,-0.00069760,-0.0
 0571874,-0.00052139,0.00084605,-0.00061339,0.00249512,0.00031380,-0.00
 374874,0.00742666,0.00964742,0.00008824,0.11983950,-0.12772120,-0.2684
 2739,0.00757906,0.00042108,0.00036107,0.00104447,-0.00137825,0.0022616
 9,0.00091878,0.00075138,0.00039306,0.00030226,0.00096638,-0.00058711,0
 .00445608,-0.01226987,-0.01510288,-0.00218313,0.13791822,0.28185575,-0
 .01039647,0.00752700,-0.04526794,-0.00870834,-0.01788266,0.00313659,-0
 .00537807,0.00150749,0.00107414,-0.00056615,0.00038424,-0.00098363,-0.
 00407518,0.00389165,0.00117546,0.01105547,0.01677417,0.00291228,0.0137
 6564,-0.00966813,0.04088063,-0.00207891,0.01908160,-0.01436451,-0.0744
 7575,0.05500105,-0.05984193,0.00808815,-0.01223293,0.01018987,0.001524
 09,-0.00426941,-0.00329302,-0.00083561,-0.00051985,0.00033076,-0.00111
 678,-0.00278567,-0.00543789,-0.00095731,0.00076682,0.00212827,0.071285
 00,-0.00246239,0.00699737,-0.00388502,0.05476572,-0.20649543,0.1321263
 8,0.00922833,-0.01516265,0.01726193,-0.00467537,-0.00110028,0.00041059
 ,-0.00047442,-0.00026664,-0.00073593,-0.00213237,0.00199497,0.00055088
 ,0.00122272,0.00013323,-0.00094133,-0.05670557,0.21535613,-0.00358482,
 0.01474927,-0.00699111,-0.05972369,0.13232934,-0.15497834,-0.00054896,
 -0.00130005,0.00355959,-0.00308992,0.00076183,0.00474775,0.00030823,-0
 .00077514,-0.00026282,-0.00576493,-0.00001447,0.00180287,0.00190020,-0
 .00133569,-0.00154971,0.06790857,-0.14400763,0.15637033,0.00288831,-0.
 00400643,-0.00177065,-0.00748114,0.00018541,-0.00832779,-0.22314002,-0
 .03605474,-0.14601622,-0.00389360,-0.00431649,-0.00515377,0.00265537,0
 .00051017,-0.00263791,0.00008090,0.00030947,0.00069988,-0.00030390,-0.
 00002253,-0.00060834,-0.00113052,0.00092405,0.00225323,0.23158713,-0.0
 0338626,-0.00343575,0.00241997,-0.02092768,0.00111287,-0.01763688,-0.0
 3742508,-0.06093243,-0.01862192,0.01812828,0.00715411,0.01438255,-0.00
 014944,-0.00274458,0.00395125,-0.00000387,-0.00120485,0.00014553,-0.00
 113268,-0.00006731,-0.00073966,0.00131805,0.00022381,-0.00110878,0.041
 51886,0.05821913,-0.00208109,0.00188360,0.00451104,0.00223717,0.000624
 14,0.00366251,-0.14533091,-0.01743643,-0.15043225,-0.01638448,-0.00503
 066,-0.00709172,-0.00230807,0.00452162,0.00115143,0.00085661,0.0004166
 6,-0.00037490,-0.00005280,0.00022058,0.00025644,0.00205610,-0.00144955
 ,-0.00176662,0.15905097,0.01862443,0.15191997,0.00134926,-0.00421448,-
 0.00273764,-0.00100252,-0.00073108,0.00020355,-0.00166739,-0.00252500,
 -0.00476866,-0.00241129,0.01883805,-0.01479786,-0.07172538,0.05277018,
 -0.06111995,0.00804987,-0.01170387,0.01104737,0.00038867,-0.00073637,0
 .00032360,-0.00024098,0.00025582,0.00039355,-0.00021670,0.00098895,-0.
 00068515,0.06810885,-0.00500728,-0.00221058,0.00025391,-0.00040766,-0.
 00024455,-0.00063798,-0.00187390,0.00190055,0.00008356,-0.00421787,0.0
 0287929,-0.00318786,0.05280089,-0.20295854,0.13141844,0.01001761,-0.01
 518510,0.01728796,0.00041014,-0.00082454,0.00098779,0.00026856,-0.0001
 3335,-0.00012328,-0.00009637,0.00020296,-0.00018325,-0.05497163,0.2132
 0916,-0.00234098,0.00093975,0.00445746,0.00004165,-0.00091770,-0.00031
 967,-0.00509442,-0.00047956,0.00114040,-0.00326087,0.01675422,-0.00740
 477,-0.06113533,0.13139205,-0.15021337,0.00017842,-0.00150008,0.002953
 23,-0.00025011,-0.00000389,0.00022620,0.00038716,-0.00013430,-0.000441
 89,-0.00014209,0.00075549,-0.00049762,0.06755096,-0.14331837,0.1519511
 9,-0.00267890,-0.00282877,-0.00396012,0.00335281,0.00045047,-0.0033011
 3,0.00000285,0.00009632,0.00081686,0.00327738,-0.00361841,-0.00178697,
 -0.00789807,-0.00015772,-0.00953975,-0.22176260,-0.03230740,-0.1440138
 4,-0.00103122,0.00121534,0.00194528,-0.00026340,-0.00019479,-0.0001892
 6,-0.00037309,0.00017989,0.00031449,-0.00106486,0.00087452,0.00219004,
 0.22928883,0.01872973,0.00768598,0.01412357,-0.00024802,-0.00240999,0.
 00444847,0.00005312,-0.00108018,0.00008745,-0.00310076,-0.00322085,0.0
 0265075,-0.02155007,0.00050664,-0.01728032,-0.03213280,-0.06054791,-0.
 01579472,0.00077070,0.00014273,-0.00139802,0.00095264,0.00018823,0.000
 76386,0.00018370,0.00001654,-0.00027010,0.00121932,0.00020402,-0.00110
 042,0.03657690,0.05890453,-0.01474811,-0.00452306,-0.00695673,-0.00295
 143,0.00505291,0.00182759,0.00083854,0.00012471,-0.00033439,-0.0020458
 8,0.00220293,0.00456477,0.00116418,0.00122255,0.00361790,-0.14410056,-
 0.01594574,-0.15322849,0.00216781,-0.00101345,-0.00160125,-0.00076344,
 -0.00022860,-0.00047786,0.00031256,-0.00027340,-0.00043361,0.00201752,
 -0.00139862,-0.00165793,0.15809311,0.01484573,0.15465996,0.00019838,-0
 .00394510,0.00312645,-0.00171930,0.00026357,-0.00565884,0.01288711,0.0
 0338263,0.00327578,-0.13648666,-0.07848939,-0.04299243,-0.02149765,-0.
 04403163,-0.00437343,0.00146091,0.00564975,-0.00784868,-0.00022147,-0.
 00003976,0.00055934,0.00039642,0.00038485,0.00005717,-0.00053360,0.000
 87719,0.00193598,0.00065683,0.00162020,0.00294916,-0.00089255,-0.00149
 684,-0.00000662,0.24867493,-0.00444670,-0.00413441,-0.00234463,0.00512
 692,0.00462281,0.00445865,-0.02365935,-0.05116949,0.00871574,-0.114525
 72,-0.22761355,-0.00586441,-0.01702374,-0.01672344,-0.00183610,-0.0006
 6533,0.00179683,0.00216193,-0.00003833,-0.00022865,-0.00034171,-0.0006
 5113,-0.00140258,0.00019246,0.00075886,0.00129573,-0.00163294,0.002227
 01,0.00274838,-0.00129600,-0.00050038,-0.00065627,-0.00011399,0.024767
 65,0.52084901,0.00337728,-0.00191095,0.00274339,-0.00809249,0.00025250
 ,-0.00245455,0.01680742,0.03210452,0.00561519,-0.02495715,0.02530903,-
 0.07562674,-0.01788822,-0.02519594,0.00616822,-0.00468874,0.00762377,-
 0.00060332,0.00055864,-0.00034287,-0.00019035,0.00057561,0.00108862,0.
 00006080,0.00199513,-0.00153066,-0.00078781,0.00264562,-0.00182053,-0.
 00049106,-0.00050512,-0.00097574,0.00003228,0.18069660,-0.22649900,0.2
 9510635,-0.00015394,0.00011896,-0.00022000,0.00135632,-0.00044747,-0.0
 0010714,-0.00136218,-0.00397077,-0.00101508,0.00662961,-0.01926903,0.0
 1801580,0.00086223,-0.00230371,0.00228611,-0.00062938,0.00002410,-0.00
 000804,-0.00005794,0.00012874,-0.00004506,-0.00019442,-0.00013659,0.00
 008064,-0.00013914,0.00001379,0.00039118,-0.00022435,0.00058279,-0.001
 07359,0.00004283,0.00004238,0.00002233,-0.10292337,0.12863024,-0.15052
 457,0.09679372,-0.00012711,0.00080964,-0.00049923,0.00100872,-0.000088
 96,0.00178696,-0.00512660,-0.00311488,-0.00182001,0.01513450,-0.030839
 24,0.02699840,0.00257470,0.00406779,-0.00003273,0.00023120,-0.00099638
 ,0.00038102,-0.00001787,0.00009034,-0.00010082,-0.00022416,-0.00033283
 ,-0.00013172,0.00010604,0.00015975,-0.00028810,-0.00141690,0.00041232,
 -0.00109119,0.00021403,0.00026653,0.00004801,0.09105687,-0.22938437,0.
 19189723,-0.10341342,0.25895031,-0.00009676,-0.00028633,0.00009129,-0.
 00083580,0.00052724,0.00075217,-0.00043691,-0.00082070,0.00214137,0.00
 079795,-0.00276192,-0.00097683,-0.00015501,-0.00425234,0.00154559,-0.0
 0011172,0.00020220,-0.00083176,0.00002831,0.00002593,-0.00006886,0.000
 12445,-0.00005604,-0.00007297,0.00034501,-0.00036792,-0.00011687,-0.00
 007289,0.00063822,0.00029784,-0.00006357,-0.00010051,-0.00001224,-0.13
 172047,0.22439999,-0.22957239,0.13219743,-0.21714782,0.22682365\\0.000
 15434,-0.00012362,0.00019567,-0.00030565,-0.00026197,-0.00013018,0.000
 34434,0.00054743,0.00002092,0.00004892,-0.00021008,0.00015020,-0.00015
 796,0.00012246,-0.00019636,-0.00001900,0.00015522,-0.00009747,0.000011
 37,0.00003499,-0.00000777,-0.00000042,0.00001699,-0.00000953,-0.000063
 37,-0.00005045,-0.00002971,0.00003543,-0.00006217,0.00006168,0.0000057
 4,-0.00002832,0.00001963,-0.00004178,-0.00019654,0.00006185,-0.0000119
 7,0.00005605,-0.00003895\\\@


 LET US LEARN TO DREAM, GENTLEMEN, THEN PERHAPS WE SHALL
 DISCOVER THE TRUTH;  BUT LET US BEWARE OF PUBLISHING
 OUR DREAMS ABROAD BEFORE THEY HAVE BEEN SCRUTINIZED
 BY OUR VIGILANT INTELLECT ... LET US ALWAYS ALLOW
 THE FRUIT TO HANG UNTIL IT IS RIPE.  UNRIPE FRUIT
 BRINGS EVEN THE GROWER BUT LITTLE PROFIT; IT DAMAGES
 THE HEALTH OF THOSE WHO CONSUME IT; IT ENDANGERS
 PARTICULARLY THE YOUTH WHO CANNOT YET DISTINGUISH
 BETWEEN RIPE AND UNRIPE FRUIT.

                                  -- KEKULE, 1890
 Job cpu time:       0 days  0 hours 42 minutes  4.8 seconds.
 Elapsed time:       0 days  0 hours  5 minutes 17.0 seconds.
 File lengths (MBytes):  RWF=     65 Int=      0 D2E=      0 Chk=      8 Scr=      1
 Normal termination of Gaussian 16 at Fri Jan  4 11:09:05 2019.
