 Entering Gaussian System, Link 0=g16
 Input=benzocfenantreno_b3lyp_n07t_gas_of.com
 Output=benzocfenantreno_b3lyp_n07t_gas_of.log
 AtFile(1): N07Tdiff_B3LYP.gbs
            -H 0
             S   5 1.00       0.000000000000
                  2.9750400000D+03  2.36336236D-05
                  4.9584000000D+02  1.47408475D-04
                  0.8264000000D+02  1.87247534D-03
                  0.1241000000D+02  1.60868063D-02
                  0.2824000000D+01  7.75147928D-02
             S   1 1.00       0.000000000000
                  0.7977000000D+00  0.10000000D+01
             S   1 1.00       0.000000000000
                  0.2581000000D+00  0.10000000D+01
             S   1 1.00       0.000000000000
                  0.8989000000D-01  0.10000000D+01
             S   1 1.00       0.000000000000
                  0.2363000000D-01  0.10000000D+01
             P   1 1.00       0.000000000000
                  0.6650000000D+00  0.10000000D+01
             P   1 1.00       0.000000000000
                  0.1000000000D+00  0.10000000D+01
             ****
             -Li 0
             S   7 1.00       0.000000000000
                  0.6601000000D+04  0.11949195D-03
                  0.9897000000D+03  0.92657395D-03
                  0.2257000000D+03  0.48178863D-02
                  0.6429000000D+02  0.19602464D-01
                  0.2118000000D+02  0.64504593D-01
                  0.7724000000D+01  0.16472368D+00
                  0.3003000000D+01  0.31211921D+00
             S   1 1.00       0.000000000000
                  0.1212000000D+01  0.10000000D+01
             S   1 1.00       0.000000000000
                  0.4930000000D+00  0.10000000D+01
             S   1 1.00       0.000000000000
                  0.9515000000D-01  0.10000000D+01
             S   1 1.00       0.000000000000
                  0.4791000000D-01  0.10000000D+01
             S   1 1.00       0.000000000000
                  0.2220000000D-01  0.10000000D+01
             P   4 1.00       0.000000000000
                  0.6250000000D+01  0.33539163D-02
                  0.1370000000D+01  0.22998027D-01
                  0.3672000000D+00  0.75216292D-01
                  0.1192000000D+00  0.26597822D+00
             P   1 1.00       0.000000000000
                  0.4474000000D-01  0.1000000000D+01
             P   1 1.00       0.000000000000
                  0.1795000000D-01  0.1000000000D+01
             P   1 1.00       0.000000000000
                  0.7718920000D-02  0.1000000000D+01
             D   1 1.00       0.000000000000
                  0.1239000000D+00  0.1000000000D+01
             ****
             -Be 0
             S   7 1.00       0.000000000000
                  0.1463000000D+05  0.92863400D-04
                  0.2191000000D+04  0.72089513D-03
                  0.4982000000D+03  0.37835769D-02
                  0.1409000000D+03  0.15660568D-01
                  0.4586000000D+02  0.53775270D-01
                  0.1647000000D+02  0.14651805D+00
                  0.6319000000D+01  0.30113640D+00
             S   1 1.00       0.000000000000
                  0.2535000000D+01  0.10000000D+01
             S   1 1.00       0.000000000000
                  0.1035000000D+01  0.10000000D+01
             S   1 1.00       0.000000000000
                  0.2528000000D+00  0.10000000D+01
             S   1 1.00       0.000000000000
                  0.1052000000D+00  0.10000000D+01
             S   1 1.00       0.000000000000
                  0.4261000000D-01  0.10000000D+01
             P   4 1.00       0.000000000000
                  0.1403000000D+02  0.46091302D-02
                  0.3168000000D+01  0.31161416D-01
                  0.9024000000D+00  0.11579574D+00
                  0.3036000000D+00  0.32803208D+00
             P   1 1.00       0.000000000000
                  0.1130000000D+00  0.1000000000D+01
             P   1 1.00       0.000000000000
                  0.4286000000D-01  0.1000000000D+01
             P   1 1.00       0.000000000000
                  0.1062631000D-01  0.1000000000D+01
             D   1 1.00       0.000000000000
                  0.2380000000D+00  0.1000000000D+01
             ****
             -B 0
             S   7 1.00       0.000000000000
                  0.2387000000D+05  0.89000778D-04
                  0.3575000000D+04  0.69102307D-03
                  0.8128000000D+03  0.36281805D-02
                  0.2297000000D+03  0.15061839D-01
                  0.7469000000D+02  0.51971708D-01
                  0.2681000000D+02  0.14344311D+00
                  0.1032000000D+02  0.29856793D+00
             S   1 1.00       0.000000000000
                  0.4178000000D+01  0.10000000D+01
             S   1 1.00       0.000000000000
                  0.1727000000D+01  0.10000000D+01
             S   1 1.00       0.000000000000
                  0.4704000000D+00  0.10000000D+01
             S   1 1.00       0.000000000000
                  0.1896000000D+00  0.10000000D+01
             S   1 1.00       0.000000000000
                  0.7394000000D-01  0.10000000D+01
             P   4 1.00       0.000000000000
                  0.2226000000D+02  0.56098326D-02
                  0.5058000000D+01  0.38041920D-01
                  0.1487000000D+01  0.14303216D+00
                  0.5071000000D+00  0.34436380D+00
             P   1 1.00       0.000000000000
                  0.1812000000D+00  0.10000000D+01
             P   1 1.00       0.000000000000
                  0.6463000000D-01  0.10000000D+01
             P   1 1.00       0.000000000000
                  0.1878000000D-01  0.10000000D+01
             D   1 1.00       0.000000000000
                  0.7500000000D+00  0.10000000D+01
             ****
             -C 0
             S   7 1.00       0.000000000000
                  0.3398000000D+05  0.91103123D-04
                  0.5089000000D+04  0.70681445D-03
                  0.1157000000D+04  0.37157718D-02
                  0.3266000000D+03  0.15441602D-01
                  0.1061000000D+03  0.53368242D-01
                  0.3811000000D+02  0.14693101D+00
                  0.1475000000D+02  0.30332487D+00
             S   1 1.00
                  0.6035000000D+01  0.10000000D+01
             S   1 1.00
                  0.2530000000D+01  0.10000000D+01
             S   1 1.00       0.000000000000
                  0.7355000000D+00  0.10000000D+01
             S   1 1.00       0.000000000000
                  0.2905000000D+00  0.10000000D+01
             S   1 1.00       0.000000000000
                  0.1111000000D+00  0.10000000D+01
            P     4     1.00
                        34.7094960              0.53300974E-02
                         7.9590883              0.35865814E-01
                         2.3786972              0.14200299
                         0.81540065             0.34203105
            P     1     1.00
                         0.28953785             1.0000000
            P     1     1.00
                         0.10084754             1.0000000
            SP     1     1.00
                         0.0356900              1.0000000
            D     1     1.00
                         1.0970000              1.0000000
            D     1     1.00
                         0.3180000              1.0000000
             ****
             -N 0
             S   7 1.00       0.000000000000
                  0.4584000000D+05  0.92722246D-04
                  0.6868000000D+04  0.71950413D-03
                  0.1563000000D+04  0.37692657D-02
                  0.4424000000D+03  0.15611124D-01
                  0.1443000000D+03  0.53531324D-01
                  0.5218000000D+02  0.14678057D+00
                  0.2034000000D+02  0.30273689D+00
             S   1 1.00
                  0.8381000000D+01  0.10000000D+01
             S   1 1.00
                  0.3529000000D+01  0.10000000D+01
             S   1 1.00       0.000000000000
                  0.1054000000D+01  0.10000000D+01
             S   1 1.00       0.000000000000
                  0.4118000000D+00  0.10000000D+01
             S   1 1.00       0.000000000000
                  0.1552000000D+00  0.10000000D+01
            P     4     1.00
                        49.218758392            0.55526953476E-02
                        11.348935304            0.38054617957E-01
                         3.4285088246           0.14941412242
                         1.1799512559           0.34898187368
            P     1     1.00
                         0.41726122577          1.0000000000
            P     1     1.00
                         0.14295131280          1.0000000000
            SP     1     1.00
                         0.0491000              1.0000000
             D   1 1.00       0.000000000000
                  0.7150000000D+00  0.10000000D+01
             D   1 1.00       0.000000000000
                  0.1500000000D+00  0.10000000D+01
            ****
             -O 0
             S   7 1.00       0.000000000000
                  0.6142000000D+05  0.90293045D-04
                  0.9199000000D+04  0.70127695D-03
                  0.2091000000D+04  0.36822079D-02
                  0.5909000000D+03  0.15294512D-01
                  0.1923000000D+03  0.52767661D-01
                  0.6932000000D+02  0.14602869D+00
                  0.2697000000D+02  0.30366828D+00
             S   1 1.00       0.000000000000
                  0.1110000000D+02  0.10000000D+01
             S   1 1.00       0.000000000000
                  0.4682000000D+01  0.10000000D+01
             S   1 1.00       0.000000000000
                  0.1428000000D+01  0.10000000D+01
             S   1 1.00       0.000000000000
                  0.5547000000D+00  0.10000000D+01
             S   1 1.00       0.000000000000
                  0.2067000000D+00  0.10000000D+01
            P     4     1.00
                        63.270524011            0.60709205960E-02
                        14.623312295            0.41947688723E-01
                         4.4489518003           0.16156883988
                         1.5281513180           0.35682779292
            P     1     1.00
                         0.52997315870          1.0000000000
            P     1     1.00
                         0.17509445998          1.0000000000
            SP   1 1.00       0.000000000000
                  0.5348000000D-01  0.10000000D+01
             D   1 1.00        0.000000000000
                  0.1190000000D+01  0.10000000D+01
             D   1 1.00        0.000000000000
                  0.1800000000D+00  0.10000000D+01
            ****
             -F 0
             S   7 1.00       0.000000000000
                  0.7453000000D+05  0.95460229D-04
                  0.1117000000D+05  0.74057830D-03
                  0.2543000000D+04  0.38747542D-02
                  0.7210000000D+03  0.15990916D-01
                  0.2359000000D+03  0.54586542D-01
                  0.8560000000D+02  0.14951090D+00
                  0.3355000000D+02  0.30660703D+00
             S   1 1.00       0.000000000000
                  0.1393000000D+02  0.10000000D+01
             S   1 1.00       0.000000000000
                  0.5915000000D+01  0.10000000D+01
             S   1 1.00       0.000000000000
                  0.1843000000D+01  0.10000000D+01
             S   1 1.00       0.000000000000
                  0.7124000000D+00  0.10000000D+01
             S   1 1.00       0.000000000000
                  0.2637000000D+00  0.10000000D+01
             P   4 1.00       0.000000000000
                  0.8039000000D+02  0.66327919D-02
                  0.1863000000D+02  0.46499661D-01
                  0.5694000000D+01  0.17400576D+00
                  0.1953000000D+01  0.36319169D+00
             P   1 1.00       0.000000000000
                  0.6702000000D+00  0.10000000D+01
             P   1 1.00       0.000000000000
                  0.2166000000D+00  0.10000000D+01
             P   1 1.00       0.000000000000
                  0.6568000000D-01  0.10000000D+01
             D   1 1.00       0.000000000000
                  1.3700000000D+00  0.10000000D+01
             D   1 1.00       0.000000000000
                  0.3000000000D+00  0.10000000D+01
             ****
            -Br 0
             S   3 1.00       0.000000000000
                  0.4721881000D+01  0.1749732514D+00
                  0.2257555000D+01 -0.7074172290D+00
                  0.3896080000D+00  0.1258999543D+01
             S   1 1.00       0.000000000000
                  0.1471340000D+00  0.1000000000D+01
             P   3 1.00       0.000000000000
                  0.1896942000D+01 -0.2464576731D+00
                  0.9108990000D+00  0.3623179892D+00
                  0.3168550000D+00  0.8338469725D+00
             P   1 1.00       0.000000000000
                  0.1095030000D+00  0.1000000000D+01
             P   1 1.00       0.000000000000
                  0.3609700000D-01  0.1000000000D+01
             D   1 1.00
                  0.4750000000D+00  0.1000000000D+01
             D   1 1.00
                  0.1280000000D+00  0.1000000000D+01
             ****
            -I   0
             S   3 1.00       0.000000000000
                  0.2122765000D+01  0.2063429899D+01
                  0.1770481000D+01 -0.2869526473D+01
                  0.3130840000D+00  0.1404747074D+01
             S   1 1.00       0.000000000000
                  0.1320000000D+00  0.1000000000D+01
             P   3 1.00       0.000000000000
                  0.2432887000D+01  0.7732753148D+00
                  0.2137249000D+01 -0.1020833156D+01
                  0.3145460000D+00  0.1095666871D+01
             P   1 1.00       0.000000000000
                  0.1049450000D+00  0.1000000000D+01
             P   1 1.00       0.000000000000
                  0.3264100000D-01  0.1000000000D+01
             D   1 1.00
                  0.300000000          1.00000000
             D   1 1.00
                  0.090000000          1.00000000
             ****
             -Zn 0
            S     5     1.00
                       315.5820000              0.90174203D-03
                        66.4556000             -0.12139434D-01
                        41.6666000              0.60639340D-01
                        11.8328000             -0.40350215D+00
                         4.5786000             -0.11964316D+00
            S     1     1.00
                         2.8641000              1.0000000
            S     1     1.00
                         1.0595000              1.0000000
            S     1     1.00
                         0.5500000              1.0000000
            S     1     1.00
                         0.1997510              1.0000000
            S     1     1.00
                         0.0425660              1.0000000
            P     5     1.00
                       558.2510000              0.13544969D-03
                        87.5501000              0.25205799D-02
                        19.6744000             -0.80415736D-01
                         4.6596900              0.36572127D+00
                         2.1399800              0.47808055D+00
            P     1     1.00
                         0.9534370              1.0000000
            P     1     1.00
                         0.3246550              1.0000000
            P     1     1.00
                         0.1193480              1.0000000
            P     1     1.00
                         0.0428360              1.0000000
            D     5     1.00
                       162.5730000              0.2558949D-02
                        50.8500000              0.24247756D-01
                        20.1679000              0.92580828D-01
                         8.6009500              0.22430938D+00
                         3.7610800              0.32985381D+00
            D     1     1.00
                         1.6056100              1.0000000
            D     1     1.00
                         0.6490060              1.0000000
            D     1     1.00
                         0.2359550              1.0000000
            ****
 Initial command:
 /home/apps/g16/g16/l1.exe "/scratch/gaussian/jpablo/Gau-382.inp" -scrdir="/scratch/gaussian/jpablo/"
 Entering Link 1 = /home/apps/g16/g16/l1.exe PID=       385.
  
 Copyright (c) 1988,1990,1992,1993,1995,1998,2003,2009,2016,
            Gaussian, Inc.  All Rights Reserved.
  
 This is part of the Gaussian(R) 16 program.  It is based on
 the Gaussian(R) 09 system (copyright 2009, Gaussian, Inc.),
 the Gaussian(R) 03 system (copyright 2003, Gaussian, Inc.),
 the Gaussian(R) 98 system (copyright 1998, Gaussian, Inc.),
 the Gaussian(R) 94 system (copyright 1995, Gaussian, Inc.),
 the Gaussian 92(TM) system (copyright 1992, Gaussian, Inc.),
 the Gaussian 90(TM) system (copyright 1990, Gaussian, Inc.),
 the Gaussian 88(TM) system (copyright 1988, Gaussian, Inc.),
 the Gaussian 86(TM) system (copyright 1986, Carnegie Mellon
 University), and the Gaussian 82(TM) system (copyright 1983,
 Carnegie Mellon University). Gaussian is a federally registered
 trademark of Gaussian, Inc.
  
 This software contains proprietary and confidential information,
 including trade secrets, belonging to Gaussian, Inc.
  
 This software is provided under written license and may be
 used, copied, transmitted, or stored only in accord with that
 written license.
  
 The following legend is applicable only to US Government
 contracts under FAR:
  
                    RESTRICTED RIGHTS LEGEND
  
 Use, reproduction and disclosure by the US Government is
 subject to restrictions as set forth in subparagraphs (a)
 and (c) of the Commercial Computer Software - Restricted
 Rights clause in FAR 52.227-19.
  
 Gaussian, Inc.
 340 Quinnipiac St., Bldg. 40, Wallingford CT 06492
  
  
 ---------------------------------------------------------------
 Warning -- This program may not be used in any manner that
 competes with the business of Gaussian, Inc. or will provide
 assistance to any competitor of Gaussian, Inc.  The licensee
 of this program is prohibited from giving any competitor of
 Gaussian, Inc. access to this program.  By using this program,
 the user acknowledges that Gaussian, Inc. is engaged in the
 business of creating and licensing software in the field of
 computational chemistry and represents and warrants to the
 licensee that it is not a competitor of Gaussian, Inc. and that
 it will not use this program in any manner prohibited above.
 ---------------------------------------------------------------
  

 Cite this work as:
 Gaussian 16, Revision A.03,
 M. J. Frisch, G. W. Trucks, H. B. Schlegel, G. E. Scuseria, 
 M. A. Robb, J. R. Cheeseman, G. Scalmani, V. Barone, 
 G. A. Petersson, H. Nakatsuji, X. Li, M. Caricato, A. V. Marenich, 
 J. Bloino, B. G. Janesko, R. Gomperts, B. Mennucci, H. P. Hratchian, 
 J. V. Ortiz, A. F. Izmaylov, J. L. Sonnenberg, D. Williams-Young, 
 F. Ding, F. Lipparini, F. Egidi, J. Goings, B. Peng, A. Petrone, 
 T. Henderson, D. Ranasinghe, V. G. Zakrzewski, J. Gao, N. Rega, 
 G. Zheng, W. Liang, M. Hada, M. Ehara, K. Toyota, R. Fukuda, 
 J. Hasegawa, M. Ishida, T. Nakajima, Y. Honda, O. Kitao, H. Nakai, 
 T. Vreven, K. Throssell, J. A. Montgomery, Jr., J. E. Peralta, 
 F. Ogliaro, M. J. Bearpark, J. J. Heyd, E. N. Brothers, K. N. Kudin, 
 V. N. Staroverov, T. A. Keith, R. Kobayashi, J. Normand, 
 K. Raghavachari, A. P. Rendell, J. C. Burant, S. S. Iyengar, 
 J. Tomasi, M. Cossi, J. M. Millam, M. Klene, C. Adamo, R. Cammi, 
 J. W. Ochterski, R. L. Martin, K. Morokuma, O. Farkas, 
 J. B. Foresman, and D. J. Fox, Gaussian, Inc., Wallingford CT, 2016.
 
 ******************************************
 Gaussian 16:  ES64L-G16RevA.03 25-Dec-2016
                 4-Dec-2018 
 ******************************************
 %nprocshared=8
 Will use up to    8 processors via shared memory.
 %mem=2GB
 %chk=benzocfenantreno_b3lyp_n07t_gas_of.chk
 ---------------------------------------
 #p opt freq b3lyp/gen geom=connectivity
 ---------------------------------------
 1/18=20,19=15,26=3,38=1,57=2/1,3;
 2/9=110,12=2,17=6,18=5,40=1/2;
 3/5=7,11=2,25=1,30=1,71=1,74=-5/1,2,3;
 4//1;
 5/5=2,38=5/2;
 6/7=2,8=2,9=2,10=2,28=1/1;
 7//1,2,3,16;
 1/18=20,19=15,26=3/3(2);
 2/9=110/2;
 99//99;
 2/9=110/2;
 3/5=7,6=1,11=2,25=1,30=1,71=1,74=-5,82=7/1,2,3;
 4/5=5,16=3,69=1/1;
 5/5=2,38=5/2;
 7//1,2,3,16;
 1/18=20,19=15,26=3/3(-5);
 2/9=110/2;
 6/7=2,8=2,9=2,10=2,19=2,28=1/1;
 99/9=1/99;
 Leave Link    1 at Tue Dec  4 11:21:18 2018, MaxMem=   268435456 cpu:               0.5 elap:               0.1
 (Enter /home/apps/g16/g16/l101.exe)
 -----
 Title
 -----
 Symbolic Z-matrix:
 Charge =  0 Multiplicity = 1
 C                     3.05858   0.73643   0.2838 
 C                     3.44609  -0.5892    0.0462 
 C                     2.47381  -1.57748  -0.1585 
 C                     1.11402  -1.24012  -0.1256 
 C                     0.72651   0.08551   0.112 
 C                     1.69879   1.07379   0.31669 
 C                    -0.63329   0.42287   0.14489 
 C                    -1.60557  -0.56541  -0.0598 
 C                    -1.21805  -1.89104  -0.2974 
 C                     0.14174  -2.2284   -0.3303 
 C                    -1.0208    1.7485    0.38249 
 C                    -2.38059   2.08586   0.41539 
 C                    -3.35287   1.09758   0.21069 
 C                    -2.96536  -0.22805  -0.0269 
 C                    -0.04852   2.73678   0.58719 
 C                    -2.7681    3.41149   0.65298 
 C                    -1.79582   4.39977   0.85768 
 C                    -0.43603   4.06241   0.82479 
 H                    -3.70771  -0.98263  -0.18319 
 H                    -1.96041  -2.64561  -0.4537 
 H                    -4.3911    1.35516   0.23581 
 H                     3.80093   1.491     0.44009 
 H                     1.40291   2.08594   0.4981 
 H                     4.48432  -0.84678   0.02109 
 H                     2.76968  -2.58963  -0.33991 
 H                     0.98971   2.4792    0.56207 
 H                     0.30633   4.81698   0.98108 
 H                    -3.80633   3.66907   0.6781 
 H                    -2.09169   5.41192   1.03909 
 H                     0.43761  -3.24055  -0.51172 
 
 ITRead=  0  0  0  0  0  0  0  0  0  0  0  0  0  0  0  0  0  0  0  0
 ITRead=  0  0  0  0  0  0  0  0  0  0
 MicOpt= -1 -1 -1 -1 -1 -1 -1 -1 -1 -1 -1 -1 -1 -1 -1 -1 -1 -1 -1 -1
 MicOpt= -1 -1 -1 -1 -1 -1 -1 -1 -1 -1
 NAtoms=     30 NQM=       30 NQMF=       0 NMMI=      0 NMMIF=      0
                NMic=       0 NMicF=      0.
                    Isotopes and Nuclear Properties:
 (Nuclear quadrupole moments (NQMom) in fm**2, nuclear magnetic moments (NMagM)
  in nuclear magnetons)

  Atom         1           2           3           4           5           6           7           8           9          10
 IAtWgt=          12          12          12          12          12          12          12          12          12          12
 AtmWgt=  12.0000000  12.0000000  12.0000000  12.0000000  12.0000000  12.0000000  12.0000000  12.0000000  12.0000000  12.0000000
 NucSpn=           0           0           0           0           0           0           0           0           0           0
 AtZEff=  -0.0000000  -0.0000000  -0.0000000  -0.0000000  -0.0000000  -0.0000000  -0.0000000  -0.0000000  -0.0000000  -0.0000000
 NQMom=    0.0000000   0.0000000   0.0000000   0.0000000   0.0000000   0.0000000   0.0000000   0.0000000   0.0000000   0.0000000
 NMagM=    0.0000000   0.0000000   0.0000000   0.0000000   0.0000000   0.0000000   0.0000000   0.0000000   0.0000000   0.0000000
 AtZNuc=   6.0000000   6.0000000   6.0000000   6.0000000   6.0000000   6.0000000   6.0000000   6.0000000   6.0000000   6.0000000

  Atom        11          12          13          14          15          16          17          18          19          20
 IAtWgt=          12          12          12          12          12          12          12          12           1           1
 AtmWgt=  12.0000000  12.0000000  12.0000000  12.0000000  12.0000000  12.0000000  12.0000000  12.0000000   1.0078250   1.0078250
 NucSpn=           0           0           0           0           0           0           0           0           1           1
 AtZEff=  -0.0000000  -0.0000000  -0.0000000  -0.0000000  -0.0000000  -0.0000000  -0.0000000  -0.0000000  -0.0000000  -0.0000000
 NQMom=    0.0000000   0.0000000   0.0000000   0.0000000   0.0000000   0.0000000   0.0000000   0.0000000   0.0000000   0.0000000
 NMagM=    0.0000000   0.0000000   0.0000000   0.0000000   0.0000000   0.0000000   0.0000000   0.0000000   2.7928460   2.7928460
 AtZNuc=   6.0000000   6.0000000   6.0000000   6.0000000   6.0000000   6.0000000   6.0000000   6.0000000   1.0000000   1.0000000

  Atom        21          22          23          24          25          26          27          28          29          30
 IAtWgt=           1           1           1           1           1           1           1           1           1           1
 AtmWgt=   1.0078250   1.0078250   1.0078250   1.0078250   1.0078250   1.0078250   1.0078250   1.0078250   1.0078250   1.0078250
 NucSpn=           1           1           1           1           1           1           1           1           1           1
 AtZEff=  -0.0000000  -0.0000000  -0.0000000  -0.0000000  -0.0000000  -0.0000000  -0.0000000  -0.0000000  -0.0000000  -0.0000000
 NQMom=    0.0000000   0.0000000   0.0000000   0.0000000   0.0000000   0.0000000   0.0000000   0.0000000   0.0000000   0.0000000
 NMagM=    2.7928460   2.7928460   2.7928460   2.7928460   2.7928460   2.7928460   2.7928460   2.7928460   2.7928460   2.7928460
 AtZNuc=   1.0000000   1.0000000   1.0000000   1.0000000   1.0000000   1.0000000   1.0000000   1.0000000   1.0000000   1.0000000
 Leave Link  101 at Tue Dec  4 11:21:19 2018, MaxMem=   268435456 cpu:               3.4 elap:               0.4
 (Enter /home/apps/g16/g16/l103.exe)

 GradGradGradGradGradGradGradGradGradGradGradGradGradGradGradGradGradGrad
 Berny optimization.
 Initialization pass.
                           ----------------------------
                           !    Initial Parameters    !
                           ! (Angstroms and Degrees)  !
 --------------------------                            --------------------------
 ! Name  Definition              Value          Derivative Info.                !
 --------------------------------------------------------------------------------
 ! R1    R(1,2)                  1.4014         estimate D2E/DX2                !
 ! R2    R(1,6)                  1.4014         estimate D2E/DX2                !
 ! R3    R(1,22)                 1.07           estimate D2E/DX2                !
 ! R4    R(2,3)                  1.4014         estimate D2E/DX2                !
 ! R5    R(2,24)                 1.07           estimate D2E/DX2                !
 ! R6    R(3,4)                  1.4014         estimate D2E/DX2                !
 ! R7    R(3,25)                 1.07           estimate D2E/DX2                !
 ! R8    R(4,5)                  1.4014         estimate D2E/DX2                !
 ! R9    R(4,10)                 1.4014         estimate D2E/DX2                !
 ! R10   R(5,6)                  1.4014         estimate D2E/DX2                !
 ! R11   R(5,7)                  1.4014         estimate D2E/DX2                !
 ! R12   R(6,23)                 1.07           estimate D2E/DX2                !
 ! R13   R(7,8)                  1.4014         estimate D2E/DX2                !
 ! R14   R(7,11)                 1.4014         estimate D2E/DX2                !
 ! R15   R(8,9)                  1.4014         estimate D2E/DX2                !
 ! R16   R(8,14)                 1.4014         estimate D2E/DX2                !
 ! R17   R(9,10)                 1.4014         estimate D2E/DX2                !
 ! R18   R(9,20)                 1.07           estimate D2E/DX2                !
 ! R19   R(10,30)                1.07           estimate D2E/DX2                !
 ! R20   R(11,12)                1.4014         estimate D2E/DX2                !
 ! R21   R(11,15)                1.4014         estimate D2E/DX2                !
 ! R22   R(12,13)                1.4014         estimate D2E/DX2                !
 ! R23   R(12,16)                1.4014         estimate D2E/DX2                !
 ! R24   R(13,14)                1.4014         estimate D2E/DX2                !
 ! R25   R(13,21)                1.07           estimate D2E/DX2                !
 ! R26   R(14,19)                1.07           estimate D2E/DX2                !
 ! R27   R(15,18)                1.4014         estimate D2E/DX2                !
 ! R28   R(15,26)                1.07           estimate D2E/DX2                !
 ! R29   R(16,17)                1.4014         estimate D2E/DX2                !
 ! R30   R(16,28)                1.07           estimate D2E/DX2                !
 ! R31   R(17,18)                1.4014         estimate D2E/DX2                !
 ! R32   R(17,29)                1.07           estimate D2E/DX2                !
 ! R33   R(18,27)                1.07           estimate D2E/DX2                !
 ! A1    A(2,1,6)              120.0            estimate D2E/DX2                !
 ! A2    A(2,1,22)             120.0            estimate D2E/DX2                !
 ! A3    A(6,1,22)             120.0            estimate D2E/DX2                !
 ! A4    A(1,2,3)              120.0            estimate D2E/DX2                !
 ! A5    A(1,2,24)             120.0            estimate D2E/DX2                !
 ! A6    A(3,2,24)             120.0            estimate D2E/DX2                !
 ! A7    A(2,3,4)              120.0            estimate D2E/DX2                !
 ! A8    A(2,3,25)             120.0            estimate D2E/DX2                !
 ! A9    A(4,3,25)             120.0            estimate D2E/DX2                !
 ! A10   A(3,4,5)              120.0            estimate D2E/DX2                !
 ! A11   A(3,4,10)             120.0            estimate D2E/DX2                !
 ! A12   A(5,4,10)             120.0            estimate D2E/DX2                !
 ! A13   A(4,5,6)              120.0            estimate D2E/DX2                !
 ! A14   A(4,5,7)              120.0            estimate D2E/DX2                !
 ! A15   A(6,5,7)              120.0            estimate D2E/DX2                !
 ! A16   A(1,6,5)              120.0            estimate D2E/DX2                !
 ! A17   A(1,6,23)             120.0            estimate D2E/DX2                !
 ! A18   A(5,6,23)             120.0            estimate D2E/DX2                !
 ! A19   A(5,7,8)              120.0            estimate D2E/DX2                !
 ! A20   A(5,7,11)             120.0            estimate D2E/DX2                !
 ! A21   A(8,7,11)             120.0            estimate D2E/DX2                !
 ! A22   A(7,8,9)              120.0            estimate D2E/DX2                !
 ! A23   A(7,8,14)             120.0            estimate D2E/DX2                !
 ! A24   A(9,8,14)             120.0            estimate D2E/DX2                !
 ! A25   A(8,9,10)             120.0            estimate D2E/DX2                !
 ! A26   A(8,9,20)             120.0            estimate D2E/DX2                !
 ! A27   A(10,9,20)            120.0            estimate D2E/DX2                !
 ! A28   A(4,10,9)             120.0            estimate D2E/DX2                !
 ! A29   A(4,10,30)            120.0            estimate D2E/DX2                !
 ! A30   A(9,10,30)            120.0            estimate D2E/DX2                !
 ! A31   A(7,11,12)            120.0            estimate D2E/DX2                !
 ! A32   A(7,11,15)            120.0            estimate D2E/DX2                !
 ! A33   A(12,11,15)           120.0            estimate D2E/DX2                !
 ! A34   A(11,12,13)           120.0            estimate D2E/DX2                !
 ! A35   A(11,12,16)           120.0            estimate D2E/DX2                !
 ! A36   A(13,12,16)           120.0            estimate D2E/DX2                !
 ! A37   A(12,13,14)           120.0            estimate D2E/DX2                !
 ! A38   A(12,13,21)           120.0            estimate D2E/DX2                !
 ! A39   A(14,13,21)           120.0            estimate D2E/DX2                !
 ! A40   A(8,14,13)            120.0            estimate D2E/DX2                !
 ! A41   A(8,14,19)            120.0            estimate D2E/DX2                !
 ! A42   A(13,14,19)           120.0            estimate D2E/DX2                !
 ! A43   A(11,15,18)           120.0            estimate D2E/DX2                !
 ! A44   A(11,15,26)           120.0            estimate D2E/DX2                !
 ! A45   A(18,15,26)           120.0            estimate D2E/DX2                !
 ! A46   A(12,16,17)           120.0            estimate D2E/DX2                !
 ! A47   A(12,16,28)           120.0            estimate D2E/DX2                !
 ! A48   A(17,16,28)           120.0            estimate D2E/DX2                !
 ! A49   A(16,17,18)           120.0            estimate D2E/DX2                !
 ! A50   A(16,17,29)           120.0            estimate D2E/DX2                !
 ! A51   A(18,17,29)           120.0            estimate D2E/DX2                !
 ! A52   A(15,18,17)           120.0            estimate D2E/DX2                !
 ! A53   A(15,18,27)           120.0            estimate D2E/DX2                !
 ! A54   A(17,18,27)           120.0            estimate D2E/DX2                !
 ! D1    D(6,1,2,3)              0.0002         estimate D2E/DX2                !
 ! D2    D(6,1,2,24)          -179.9999         estimate D2E/DX2                !
 ! D3    D(22,1,2,3)          -179.9999         estimate D2E/DX2                !
 ! D4    D(22,1,2,24)            0.0001         estimate D2E/DX2                !
 ! D5    D(2,1,6,5)              0.0            estimate D2E/DX2                !
 ! D6    D(2,1,6,23)          -180.0            estimate D2E/DX2                !
 ! D7    D(22,1,6,5)          -180.0            estimate D2E/DX2                !
 ! D8    D(22,1,6,23)            0.0            estimate D2E/DX2                !
 ! D9    D(1,2,3,4)             -0.0002         estimate D2E/DX2                !
 ! D10   D(1,2,3,25)           179.9999         estimate D2E/DX2                !
 ! D11   D(24,2,3,4)           179.9999         estimate D2E/DX2                !
 ! D12   D(24,2,3,25)           -0.0001         estimate D2E/DX2                !
 ! D13   D(2,3,4,5)              0.0            estimate D2E/DX2                !
 ! D14   D(2,3,4,10)           179.9999         estimate D2E/DX2                !
 ! D15   D(25,3,4,5)           179.9999         estimate D2E/DX2                !
 ! D16   D(25,3,4,10)           -0.0001         estimate D2E/DX2                !
 ! D17   D(3,4,5,6)              0.0002         estimate D2E/DX2                !
 ! D18   D(3,4,5,7)           -179.9999         estimate D2E/DX2                !
 ! D19   D(10,4,5,6)          -179.9998         estimate D2E/DX2                !
 ! D20   D(10,4,5,7)             0.0001         estimate D2E/DX2                !
 ! D21   D(3,4,10,9)           179.9999         estimate D2E/DX2                !
 ! D22   D(3,4,10,30)           -0.0002         estimate D2E/DX2                !
 ! D23   D(5,4,10,9)            -0.0002         estimate D2E/DX2                !
 ! D24   D(5,4,10,30)          179.9998         estimate D2E/DX2                !
 ! D25   D(4,5,6,1)             -0.0002         estimate D2E/DX2                !
 ! D26   D(4,5,6,23)           179.9998         estimate D2E/DX2                !
 ! D27   D(7,5,6,1)            179.9999         estimate D2E/DX2                !
 ! D28   D(7,5,6,23)            -0.0001         estimate D2E/DX2                !
 ! D29   D(4,5,7,8)              0.0            estimate D2E/DX2                !
 ! D30   D(4,5,7,11)          -180.0            estimate D2E/DX2                !
 ! D31   D(6,5,7,8)            179.9999         estimate D2E/DX2                !
 ! D32   D(6,5,7,11)            -0.0001         estimate D2E/DX2                !
 ! D33   D(5,7,8,9)             -0.0001         estimate D2E/DX2                !
 ! D34   D(5,7,8,14)           179.9999         estimate D2E/DX2                !
 ! D35   D(11,7,8,9)           179.9999         estimate D2E/DX2                !
 ! D36   D(11,7,8,14)           -0.0001         estimate D2E/DX2                !
 ! D37   D(5,7,11,12)          180.0            estimate D2E/DX2                !
 ! D38   D(5,7,11,15)            0.0            estimate D2E/DX2                !
 ! D39   D(8,7,11,12)            0.0            estimate D2E/DX2                !
 ! D40   D(8,7,11,15)          180.0            estimate D2E/DX2                !
 ! D41   D(7,8,9,10)             0.0001         estimate D2E/DX2                !
 ! D42   D(7,8,9,20)          -179.9999         estimate D2E/DX2                !
 ! D43   D(14,8,9,10)         -179.9999         estimate D2E/DX2                !
 ! D44   D(14,8,9,20)            0.0001         estimate D2E/DX2                !
 ! D45   D(7,8,14,13)            0.0002         estimate D2E/DX2                !
 ! D46   D(7,8,14,19)         -179.9998         estimate D2E/DX2                !
 ! D47   D(9,8,14,13)         -179.9998         estimate D2E/DX2                !
 ! D48   D(9,8,14,19)            0.0002         estimate D2E/DX2                !
 ! D49   D(8,9,10,4)             0.0001         estimate D2E/DX2                !
 ! D50   D(8,9,10,30)         -179.9999         estimate D2E/DX2                !
 ! D51   D(20,9,10,4)         -179.9999         estimate D2E/DX2                !
 ! D52   D(20,9,10,30)           0.0001         estimate D2E/DX2                !
 ! D53   D(7,11,12,13)           0.0001         estimate D2E/DX2                !
 ! D54   D(7,11,12,16)        -179.9998         estimate D2E/DX2                !
 ! D55   D(15,11,12,13)       -179.9999         estimate D2E/DX2                !
 ! D56   D(15,11,12,16)          0.0002         estimate D2E/DX2                !
 ! D57   D(7,11,15,18)         179.9999         estimate D2E/DX2                !
 ! D58   D(7,11,15,26)          -0.0001         estimate D2E/DX2                !
 ! D59   D(12,11,15,18)         -0.0001         estimate D2E/DX2                !
 ! D60   D(12,11,15,26)        179.9999         estimate D2E/DX2                !
 ! D61   D(11,12,13,14)          0.0            estimate D2E/DX2                !
 ! D62   D(11,12,13,21)       -179.9999         estimate D2E/DX2                !
 ! D63   D(16,12,13,14)        179.9999         estimate D2E/DX2                !
 ! D64   D(16,12,13,21)          0.0            estimate D2E/DX2                !
 ! D65   D(11,12,16,17)         -0.0001         estimate D2E/DX2                !
 ! D66   D(11,12,16,28)        179.9998         estimate D2E/DX2                !
 ! D67   D(13,12,16,17)        180.0            estimate D2E/DX2                !
 ! D68   D(13,12,16,28)         -0.0001         estimate D2E/DX2                !
 ! D69   D(12,13,14,8)          -0.0001         estimate D2E/DX2                !
 ! D70   D(12,13,14,19)        179.9999         estimate D2E/DX2                !
 ! D71   D(21,13,14,8)         179.9998         estimate D2E/DX2                !
 ! D72   D(21,13,14,19)         -0.0002         estimate D2E/DX2                !
 ! D73   D(11,15,18,17)          0.0            estimate D2E/DX2                !
 ! D74   D(11,15,18,27)        180.0            estimate D2E/DX2                !
 ! D75   D(26,15,18,17)        180.0            estimate D2E/DX2                !
 ! D76   D(26,15,18,27)          0.0            estimate D2E/DX2                !
 ! D77   D(12,16,17,18)         -0.0001         estimate D2E/DX2                !
 ! D78   D(12,16,17,29)       -180.0            estimate D2E/DX2                !
 ! D79   D(28,16,17,18)       -179.9999         estimate D2E/DX2                !
 ! D80   D(28,16,17,29)          0.0001         estimate D2E/DX2                !
 ! D81   D(16,17,18,15)          0.0001         estimate D2E/DX2                !
 ! D82   D(16,17,18,27)       -179.9999         estimate D2E/DX2                !
 ! D83   D(29,17,18,15)       -180.0            estimate D2E/DX2                !
 ! D84   D(29,17,18,27)          0.0            estimate D2E/DX2                !
 --------------------------------------------------------------------------------
 Trust Radius=3.00D-01 FncErr=1.00D-07 GrdErr=1.00D-06 EigMax=2.50D+02 EigMin=1.00D-04
 Number of steps in this run=    180 maximum allowed number of steps=    180.
 GradGradGradGradGradGradGradGradGradGradGradGradGradGradGradGradGradGrad

 Leave Link  103 at Tue Dec  4 11:21:19 2018, MaxMem=   268435456 cpu:               0.1 elap:               0.0
 (Enter /home/apps/g16/g16/l202.exe)
                          Input orientation:                          
 ---------------------------------------------------------------------
 Center     Atomic      Atomic             Coordinates (Angstroms)
 Number     Number       Type             X           Y           Z
 ---------------------------------------------------------------------
      1          6           0        3.058576    0.736432    0.283795
      2          6           0        3.446086   -0.589202    0.046202
      3          6           0        2.473806   -1.577479   -0.158498
      4          6           0        1.114016   -1.240122   -0.125601
      5          6           0        0.726505    0.085511    0.111996
      6          6           0        1.698785    1.073789    0.316692
      7          6           0       -0.633285    0.422868    0.144895
      8          6           0       -1.605565   -0.565409   -0.059804
      9          6           0       -1.218055   -1.891043   -0.297403
     10          6           0        0.141736   -2.228399   -0.330303
     11          6           0       -1.020796    1.748502    0.382492
     12          6           0       -2.380586    2.085858    0.415390
     13          6           0       -3.352866    1.097581    0.210693
     14          6           0       -2.965356   -0.228053   -0.026902
     15          6           0       -0.048516    2.736779    0.587191
     16          6           0       -2.768097    3.411493    0.652984
     17          6           0       -1.795817    4.399770    0.857681
     18          6           0       -0.436026    4.062413    0.824786
     19          1           0       -3.707713   -0.982626   -0.183191
     20          1           0       -1.960412   -2.645614   -0.453696
     21          1           0       -4.391097    1.355160    0.235811
     22          1           0        3.800933    1.491004    0.440086
     23          1           0        1.402912    2.085941    0.498100
     24          1           0        4.484316   -0.846782    0.021087
     25          1           0        2.769679   -2.589630   -0.339908
     26          1           0        0.989714    2.479199    0.562074
     27          1           0        0.306331    4.816985    0.981078
     28          1           0       -3.806327    3.669073    0.678099
     29          1           0       -2.091690    5.411922    1.039090
     30          1           0        0.437609   -3.240550   -0.511716
 ---------------------------------------------------------------------
                    Distance matrix (angstroms):
                    1          2          3          4          5
     1  C    0.000000
     2  C    1.401400   0.000000
     3  C    2.427296   1.401400   0.000000
     4  C    2.802800   2.427296   1.401400   0.000000
     5  C    2.427296   2.802800   2.427296   1.401400   0.000000
     6  C    1.401400   2.427296   2.802800   2.427296   1.401400
     7  C    3.707756   4.204200   3.707756   2.427296   1.401400
     8  C    4.854592   5.052820   4.204200   2.802800   2.427296
     9  C    5.052820   4.854592   3.707756   2.427296   2.802800
    10  C    4.204200   3.707756   2.427296   1.401400   2.427296
    11  C    4.204200   5.052820   4.854592   3.707756   2.427296
    12  C    5.605600   6.422022   6.108561   4.854592   3.707756
    13  C    6.422022   7.007000   6.422022   5.052820   4.204200
    14  C    6.108561   6.422022   5.605600   4.204200   3.707756
    15  C    3.707756   4.854592   5.052820   4.204200   2.802800
    16  C    6.422022   7.415512   7.281888   6.108561   4.854592
    17  C    6.108561   7.281888   7.415512   6.422022   5.052820
    18  C    4.854592   6.108561   6.422022   5.605600   4.204200
    19  H    6.996850   7.168281   6.210124   4.828943   4.570596
    20  H    6.096915   5.805941   4.570596   3.396345   3.872800
    21  H    7.475476   8.077000   7.475476   6.096915   5.274200
    22  H    1.070000   2.146700   3.396345   3.872800   3.396345
    23  H    2.146700   3.396345   3.872800   3.396345   2.146700
    24  H    2.146700   1.070000   2.146700   3.396345   3.872800
    25  H    3.396345   2.146700   1.070000   2.146700   3.396345
    26  H    2.719350   3.964212   4.379314   3.784403   2.449815
    27  H    4.971113   6.321306   6.847317   6.210124   4.828943
    28  H    7.475476   8.433842   8.225951   6.996850   5.805941
    29  H    6.996850   8.225951   8.433842   7.475476   6.096915
    30  H    4.828943   4.048685   2.652671   2.146700   3.396345
                    6          7          8          9         10
     6  C    0.000000
     7  C    2.427296   0.000000
     8  C    3.707756   1.401400   0.000000
     9  C    4.204200   2.427296   1.401400   0.000000
    10  C    3.707756   2.802800   2.427296   1.401400   0.000000
    11  C    2.802800   1.401400   2.427296   3.707756   4.204200
    12  C    4.204200   2.427296   2.802800   4.204200   5.052820
    13  C    5.052820   2.802800   2.427296   3.707756   4.854592
    14  C    4.854592   2.427296   1.401400   2.427296   3.707756
    15  C    2.427296   2.427296   3.707756   4.854592   5.052820
    16  C    5.052820   3.707756   4.204200   5.605600   6.422022
    17  C    4.854592   4.204200   5.052820   6.422022   7.007000
    18  C    3.707756   3.707756   4.854592   6.108561   6.422022
    19  H    5.805941   3.396345   2.146700   2.652671   4.048685
    20  H    5.274200   3.396345   2.146700   1.070000   2.146700
    21  H    6.096915   3.872800   3.396345   4.570596   5.805941
    22  H    2.146700   4.570596   5.805941   6.096915   5.274200
    23  H    1.070000   2.652671   4.048685   4.828943   4.570596
    24  H    3.396345   5.274200   6.096915   5.805941   4.570596
    25  H    3.872800   4.570596   4.828943   4.048685   2.652671
    26  H    1.593164   2.652671   4.048685   4.971113   4.865890
    27  H    4.048685   4.570596   5.805941   6.996850   7.168281
    28  H    6.096915   4.570596   4.828943   6.210124   7.168281
    29  H    5.805941   5.274200   6.096915   7.475476   8.077000
    30  H    4.570596   3.872800   3.396345   2.146700   1.070000
                   11         12         13         14         15
    11  C    0.000000
    12  C    1.401400   0.000000
    13  C    2.427296   1.401400   0.000000
    14  C    2.802800   2.427296   1.401400   0.000000
    15  C    1.401400   2.427296   3.707756   4.204200   0.000000
    16  C    2.427296   1.401400   2.427296   3.707756   2.802800
    17  C    2.802800   2.427296   3.707756   4.854592   2.427296
    18  C    2.427296   2.802800   4.204200   5.052820   1.401400
    19  H    3.872800   3.396345   2.146700   1.070000   5.274200
    20  H    4.570596   4.828943   4.048685   2.652671   5.805941
    21  H    3.396345   2.146700   1.070000   2.146700   4.570596
    22  H    4.828943   6.210124   7.168281   6.996850   4.048685
    23  H    2.449815   3.784403   4.865890   4.971113   1.593164
    24  H    6.096915   7.475476   8.077000   7.475476   5.805941
    25  H    5.805941   6.996850   7.168281   6.210124   6.096915
    26  H    2.146700   3.396345   4.570596   4.828943   1.070000
    27  H    3.396345   3.872800   5.274200   6.096915   2.146700
    28  H    3.396345   2.146700   2.652671   4.048685   3.872800
    29  H    3.872800   3.396345   4.570596   5.805941   3.396345
    30  H    5.274200   6.096915   5.805941   4.570596   6.096915
                   16         17         18         19         20
    16  C    0.000000
    17  C    1.401400   0.000000
    18  C    2.427296   1.401400   0.000000
    19  H    4.570596   5.805941   6.096915   0.000000
    20  H    6.210124   7.168281   6.996850   2.427296   0.000000
    21  H    2.652671   4.048685   4.828943   2.471400   4.731791
    22  H    6.847317   6.321306   4.971113   7.930138   7.148675
    23  H    4.379314   3.964212   2.719350   5.999896   5.882642
    24  H    8.433842   8.225951   6.996850   8.195702   6.707886
    25  H    8.225951   8.433842   7.475476   6.675600   4.731791
    26  H    3.872800   3.396345   2.146700   5.882642   5.999896
    27  H    3.396345   2.146700   1.070000   7.148675   7.930138
    28  H    1.070000   2.146700   3.396345   4.731791   6.675600
    29  H    2.146700   1.070000   2.146700   6.707886   8.195702
    30  H    7.475476   8.077000   7.475476   4.731791   2.471400
                   21         22         23         24         25
    21  H    0.000000
    22  H    8.195702   0.000000
    23  H    5.845800   2.471400   0.000000
    24  H    9.147000   2.471400   4.280590   0.000000
    25  H    8.195702   4.280590   4.942800   2.471400   0.000000
    26  H    5.506636   2.982342   0.574002   4.854592   5.447466
    27  H    5.882642   4.854592   2.982342   7.103197   7.916504
    28  H    2.427296   7.916504   5.447466   9.463582   9.135182
    29  H    4.731791   7.103197   4.854592   9.135182   9.463582
    30  H    6.707886   5.882642   5.506636   4.731791   2.427296
                   26         27         28         29         30
    26  H    0.000000
    27  H    2.471400   0.000000
    28  H    4.942800   4.280590   0.000000
    29  H    4.280590   2.471400   2.471400   0.000000
    30  H    5.845800   8.195702   8.195702   9.147000   0.000000
 Stoichiometry    C18H12
 Framework group  C1[X(C18H12)]
 Deg. of freedom    84
 Full point group                 C1      NOp   1
 Largest Abelian subgroup         C1      NOp   1
 Largest concise Abelian subgroup C1      NOp   1
                         Standard orientation:                         
 ---------------------------------------------------------------------
 Center     Atomic      Atomic             Coordinates (Angstroms)
 Number     Number       Type             X           Y           Z
 ---------------------------------------------------------------------
      1          6           0        2.427296   -2.312310    0.000001
      2          6           0        3.640944   -1.611610   -0.000003
      3          6           0        3.640944   -0.210210   -0.000001
      4          6           0        2.427296    0.490490    0.000001
      5          6           0        1.213648   -0.210210   -0.000000
      6          6           0        1.213648   -1.611610    0.000002
      7          6           0        0.000000    0.490490   -0.000001
      8          6           0        0.000000    1.891890   -0.000000
      9          6           0        1.213648    2.592590    0.000003
     10          6           0        2.427296    1.891890    0.000004
     11          6           0       -1.213648   -0.210210   -0.000001
     12          6           0       -2.427296    0.490490   -0.000001
     13          6           0       -2.427296    1.891890   -0.000002
     14          6           0       -1.213648    2.592590   -0.000003
     15          6           0       -1.213648   -1.611610   -0.000002
     16          6           0       -3.640944   -0.210210    0.000002
     17          6           0       -3.640944   -1.611610    0.000003
     18          6           0       -2.427296   -2.312310   -0.000000
     19          1           0       -1.213648    3.662590   -0.000007
     20          1           0        1.213648    3.662590    0.000004
     21          1           0       -3.353943    2.426890   -0.000001
     22          1           0        2.427296   -3.382310    0.000002
     23          1           0        0.287001   -2.146610    0.000005
     24          1           0        4.567591   -2.146610   -0.000006
     25          1           0        4.567591    0.324790   -0.000001
     26          1           0       -0.287001   -2.146610   -0.000004
     27          1           0       -2.427296   -3.382310   -0.000001
     28          1           0       -4.567591    0.324790    0.000005
     29          1           0       -4.567591   -2.146610    0.000005
     30          1           0        3.353943    2.426890    0.000007
 ---------------------------------------------------------------------
 Rotational constants (GHZ):           0.7962802           0.3922657           0.2628030
 Leave Link  202 at Tue Dec  4 11:21:19 2018, MaxMem=   268435456 cpu:               0.0 elap:               0.0
 (Enter /home/apps/g16/g16/l301.exe)
 General basis read from cards:  (5D, 7F)
 Centers:      19     20     21     22     23     24     25     26     27     28
 Centers:      29     30
 S 5 1.00 0.000000000000
     Exponent=  2.9750400000D+03 Coefficients=  2.3633623600D-05
     Exponent=  4.9584000000D+02 Coefficients=  1.4740847500D-04
     Exponent=  8.2640000000D+01 Coefficients=  1.8724753400D-03
     Exponent=  1.2410000000D+01 Coefficients=  1.6086806300D-02
     Exponent=  2.8240000000D+00 Coefficients=  7.7514792800D-02
 S 1 1.00 0.000000000000
     Exponent=  7.9770000000D-01 Coefficients=  1.0000000000D+00
 S 1 1.00 0.000000000000
     Exponent=  2.5810000000D-01 Coefficients=  1.0000000000D+00
 S 1 1.00 0.000000000000
     Exponent=  8.9890000000D-02 Coefficients=  1.0000000000D+00
 S 1 1.00 0.000000000000
     Exponent=  2.3630000000D-02 Coefficients=  1.0000000000D+00
 P 1 1.00 0.000000000000
     Exponent=  6.6500000000D-01 Coefficients=  1.0000000000D+00
 P 1 1.00 0.000000000000
     Exponent=  1.0000000000D-01 Coefficients=  1.0000000000D+00
 ****
 Centers:       1      2      3      4      5      6      7      8      9     10
 Centers:      11     12     13     14     15     16     17     18
 S 7 1.00 0.000000000000
     Exponent=  3.3980000000D+04 Coefficients=  9.1103123000D-05
     Exponent=  5.0890000000D+03 Coefficients=  7.0681445000D-04
     Exponent=  1.1570000000D+03 Coefficients=  3.7157718000D-03
     Exponent=  3.2660000000D+02 Coefficients=  1.5441602000D-02
     Exponent=  1.0610000000D+02 Coefficients=  5.3368242000D-02
     Exponent=  3.8110000000D+01 Coefficients=  1.4693101000D-01
     Exponent=  1.4750000000D+01 Coefficients=  3.0332487000D-01
 S 1 1.00
     Exponent=  6.0350000000D+00 Coefficients=  1.0000000000D+00
 S 1 1.00
     Exponent=  2.5300000000D+00 Coefficients=  1.0000000000D+00
 S 1 1.00 0.000000000000
     Exponent=  7.3550000000D-01 Coefficients=  1.0000000000D+00
 S 1 1.00 0.000000000000
     Exponent=  2.9050000000D-01 Coefficients=  1.0000000000D+00
 S 1 1.00 0.000000000000
     Exponent=  1.1110000000D-01 Coefficients=  1.0000000000D+00
 P 4 1.00
     Exponent=  3.4709496000D+01 Coefficients=  5.3300974000D-03
     Exponent=  7.9590883000D+00 Coefficients=  3.5865814000D-02
     Exponent=  2.3786972000D+00 Coefficients=  1.4200299000D-01
     Exponent=  8.1540065000D-01 Coefficients=  3.4203105000D-01
 P 1 1.00
     Exponent=  2.8953785000D-01 Coefficients=  1.0000000000D+00
 P 1 1.00
     Exponent=  1.0084754000D-01 Coefficients=  1.0000000000D+00
 SP 1 1.00
     Exponent=  3.5690000000D-02 Coefficients=  1.0000000000D+00  1.0000000000D+00
 D 1 1.00
     Exponent=  1.0970000000D+00 Coefficients=  1.0000000000D+00
 D 1 1.00
     Exponent=  3.1800000000D-01 Coefficients=  1.0000000000D+00
 ****
 Ernie: Thresh=  0.10000D-02 Tol=  0.10000D-05 Strict=F.
 There are   690 symmetry adapted cartesian basis functions of A   symmetry.
 There are   654 symmetry adapted basis functions of A   symmetry.
   654 basis functions,  1008 primitive gaussians,   690 cartesian basis functions
    60 alpha electrons       60 beta electrons
       nuclear repulsion energy      1177.2763344079 Hartrees.
 IExCor=  402 DFT=T Ex+Corr=B3LYP ExCW=0 ScaHFX=  0.200000
 ScaDFX=  0.800000  0.720000  1.000000  0.810000 ScalE2=  1.000000  1.000000
 IRadAn=      5 IRanWt=     -1 IRanGd=            0 ICorTp=0 IEmpDi=  4
 NAtoms=   30 NActive=   30 NUniq=   30 SFac= 1.00D+00 NAtFMM=   60 NAOKFM=F Big=F
 Integral buffers will be    131072 words long.
 Raffenetti 2 integral format.
 Two-electron integral symmetry is turned on.
 Leave Link  301 at Tue Dec  4 11:21:19 2018, MaxMem=   268435456 cpu:               1.9 elap:               0.2
 (Enter /home/apps/g16/g16/l302.exe)
 NPDir=0 NMtPBC=     1 NCelOv=     1 NCel=       1 NClECP=     1 NCelD=      1
         NCelK=      1 NCelE2=     1 NClLst=     1 CellRange=     0.0.
 One-electron integrals computed using PRISM.
 One-electron integral symmetry used in STVInt
 NBasis=   654 RedAO= T EigKep=  1.10D-06  NBF=   654
 NBsUse=   637 1.00D-06 EigRej=  7.78D-07 NBFU=   637
 Precomputing XC quadrature grid using
 IXCGrd= 4 IRadAn=           5 IRanWt=          -1 IRanGd=           0 AccXCQ= 0.00D+00.
 Generated NRdTot=       0 NPtTot=           0 NUsed=           0 NTot=          32
 NSgBfM=   679   679   679   679   679 MxSgAt=    30 MxSgA2=    30.
 Leave Link  302 at Tue Dec  4 11:21:22 2018, MaxMem=   268435456 cpu:              24.5 elap:               3.1
 (Enter /home/apps/g16/g16/l303.exe)
 DipDrv:  MaxL=1.
 Leave Link  303 at Tue Dec  4 11:21:23 2018, MaxMem=   268435456 cpu:               2.3 elap:               0.3
 (Enter /home/apps/g16/g16/l401.exe)
 ExpMin= 2.36D-02 ExpMax= 3.40D+04 ExpMxC= 3.27D+02 IAcc=3 IRadAn=         5 AccDes= 0.00D+00
 Harris functional with IExCor=  402 and IRadAn=       5 diagonalized for initial guess.
 HarFok:  IExCor=  402 AccDes= 0.00D+00 IRadAn=         5 IDoV= 1 UseB2=F ITyADJ=14
 ICtDFT=  3500011 ScaDFX=  1.000000  1.000000  1.000000  1.000000
 FoFCou: FMM=F IPFlag=           0 FMFlag=      100000 FMFlg1=           0
         NFxFlg=           0 DoJE=T BraDBF=F KetDBF=T FulRan=T
         wScrn=  0.000000 ICntrl=       500 IOpCl=  0 I1Cent=   200000004 NGrid=           0
         NMat0=    1 NMatS0=      1 NMatT0=    0 NMatD0=    1 NMtDS0=    0 NMtDT0=    0
 Petite list used in FoFCou.
 Harris En= -693.268656523174    
 JPrj=0 DoOrth=F DoCkMO=F.
 Leave Link  401 at Tue Dec  4 11:21:50 2018, MaxMem=   268435456 cpu:             211.9 elap:              26.5
 (Enter /home/apps/g16/g16/l502.exe)
 Integral symmetry usage will be decided dynamically.
 Closed shell SCF:
 Using DIIS extrapolation, IDIIS=  1040.
 NGot=   268435456 LenX=   267471600 LenY=   266994810
 Requested convergence on RMS density matrix=1.00D-08 within 128 cycles.
 Requested convergence on MAX density matrix=1.00D-06.
 Requested convergence on             energy=1.00D-06.
 No special actions if energy rises.
 Fock matrices will be formed incrementally for  20 cycles.

 Cycle   1  Pass 1  IDiag  1:
 FoFJK:  IHMeth= 1 ICntrl=       0 DoSepK=F KAlg= 0 I1Cent=           0 FoldK=F
 IRaf= 870000000 NMat=       1 IRICut=       1 DoRegI=T DoRafI=F ISym2E= 0 IDoP0=0 IntGTp=1.
 FoFCou: FMM=F IPFlag=           0 FMFlag=      100000 FMFlg1=           0
         NFxFlg=           0 DoJE=F BraDBF=F KetDBF=F FulRan=T
         wScrn=  0.000000 ICntrl=         0 IOpCl=  0 I1Cent=           0 NGrid=           0
         NMat0=    1 NMatS0=      1 NMatT0=    0 NMatD0=    1 NMtDS0=    0 NMtDT0=    0
 Symmetry not used in FoFCou.
 E= -692.801079069989    
 DIIS: error= 2.80D-02 at cycle   1 NSaved=   1.
 NSaved= 1 IEnMin= 1 EnMin= -692.801079069989     IErMin= 1 ErrMin= 2.80D-02
 ErrMax= 2.80D-02  0.00D+00 EMaxC= 1.00D-01 BMatC= 3.87D-01 BMatP= 3.87D-01
 IDIUse=3 WtCom= 7.20D-01 WtEn= 2.80D-01
 Coeff-Com:  0.100D+01
 Coeff-En:   0.100D+01
 Coeff:      0.100D+01
 Gap=     0.145 Goal=   None    Shift=    0.000
 GapD=    0.145 DampG=1.000 DampE=0.500 DampFc=0.5000 IDamp=-1.
 Damping current iteration by 5.00D-01
 RMSDP=5.56D-03 MaxDP=2.29D-01              OVMax= 1.86D-01

 Cycle   2  Pass 1  IDiag  1:
 RMSU=  2.39D-03    CP:  8.79D-01
 E= -692.983858752127     Delta-E=       -0.182779682138 Rises=F Damp=T
 DIIS: error= 4.69D-03 at cycle   2 NSaved=   2.
 NSaved= 2 IEnMin= 2 EnMin= -692.983858752127     IErMin= 2 ErrMin= 4.69D-03
 ErrMax= 4.69D-03  0.00D+00 EMaxC= 1.00D-01 BMatC= 2.74D-02 BMatP= 3.87D-01
 IDIUse=3 WtCom= 9.53D-01 WtEn= 4.69D-02
 Coeff-Com: -0.755D-01 0.108D+01
 Coeff-En:   0.000D+00 0.100D+01
 Coeff:     -0.720D-01 0.107D+01
 Gap=     0.223 Goal=   None    Shift=    0.000
 RMSDP=1.57D-03 MaxDP=1.71D-01 DE=-1.83D-01 OVMax= 1.27D-01

 Cycle   3  Pass 1  IDiag  1:
 RMSU=  1.38D-03    CP:  8.51D-01  7.17D-01
 E= -693.166248498757     Delta-E=       -0.182389746630 Rises=F Damp=F
 DIIS: error= 7.55D-03 at cycle   3 NSaved=   3.
 NSaved= 3 IEnMin= 3 EnMin= -693.166248498757     IErMin= 2 ErrMin= 4.69D-03
 ErrMax= 7.55D-03  0.00D+00 EMaxC= 1.00D-01 BMatC= 1.69D-02 BMatP= 2.74D-02
 IDIUse=3 WtCom= 9.25D-01 WtEn= 7.55D-02
 Coeff-Com: -0.102D+00 0.490D+00 0.611D+00
 Coeff-En:   0.000D+00 0.000D+00 0.100D+01
 Coeff:     -0.939D-01 0.453D+00 0.641D+00
 Gap=     0.143 Goal=   None    Shift=    0.000
 RMSDP=5.63D-04 MaxDP=1.52D-02 DE=-1.82D-01 OVMax= 8.43D-02

 Cycle   4  Pass 1  IDiag  1:
 RMSU=  5.16D-04    CP:  8.47D-01  7.85D-01  8.90D-01
 E= -693.174628099322     Delta-E=       -0.008379600565 Rises=F Damp=F
 DIIS: error= 6.36D-03 at cycle   4 NSaved=   4.
 NSaved= 4 IEnMin= 4 EnMin= -693.174628099322     IErMin= 2 ErrMin= 4.69D-03
 ErrMax= 6.36D-03  0.00D+00 EMaxC= 1.00D-01 BMatC= 1.01D-02 BMatP= 1.69D-02
 IDIUse=3 WtCom= 9.36D-01 WtEn= 6.36D-02
 Coeff-Com: -0.646D-01 0.218D+00 0.451D+00 0.396D+00
 Coeff-En:   0.000D+00 0.000D+00 0.380D+00 0.620D+00
 Coeff:     -0.605D-01 0.205D+00 0.446D+00 0.410D+00
 Gap=     0.144 Goal=   None    Shift=    0.000
 RMSDP=2.85D-04 MaxDP=9.37D-03 DE=-8.38D-03 OVMax= 5.21D-02

 Cycle   5  Pass 1  IDiag  1:
 RMSU=  2.14D-04    CP:  8.52D-01  8.06D-01  9.03D-01  6.68D-01
 E= -693.185402470563     Delta-E=       -0.010774371241 Rises=F Damp=F
 DIIS: error= 1.56D-03 at cycle   5 NSaved=   5.
 NSaved= 5 IEnMin= 5 EnMin= -693.185402470563     IErMin= 5 ErrMin= 1.56D-03
 ErrMax= 1.56D-03  0.00D+00 EMaxC= 1.00D-01 BMatC= 5.52D-04 BMatP= 1.01D-02
 IDIUse=3 WtCom= 9.84D-01 WtEn= 1.56D-02
 Coeff-Com: -0.219D-01 0.538D-01 0.166D+00 0.235D+00 0.567D+00
 Coeff-En:   0.000D+00 0.000D+00 0.000D+00 0.162D-01 0.984D+00
 Coeff:     -0.215D-01 0.529D-01 0.163D+00 0.232D+00 0.574D+00
 Gap=     0.144 Goal=   None    Shift=    0.000
 RMSDP=8.85D-05 MaxDP=3.76D-03 DE=-1.08D-02 OVMax= 1.22D-02

 Cycle   6  Pass 1  IDiag  1:
 RMSU=  5.78D-05    CP:  8.51D-01  8.13D-01  9.12D-01  6.66D-01  7.02D-01
 E= -693.185914168931     Delta-E=       -0.000511698368 Rises=F Damp=F
 DIIS: error= 4.39D-04 at cycle   6 NSaved=   6.
 NSaved= 6 IEnMin= 6 EnMin= -693.185914168931     IErMin= 6 ErrMin= 4.39D-04
 ErrMax= 4.39D-04  0.00D+00 EMaxC= 1.00D-01 BMatC= 7.50D-05 BMatP= 5.52D-04
 IDIUse=3 WtCom= 9.96D-01 WtEn= 4.39D-03
 Coeff-Com: -0.726D-02 0.122D-01 0.572D-01 0.102D+00 0.355D+00 0.481D+00
 Coeff-En:   0.000D+00 0.000D+00 0.000D+00 0.000D+00 0.100D+00 0.900D+00
 Coeff:     -0.723D-02 0.122D-01 0.569D-01 0.101D+00 0.354D+00 0.483D+00
 Gap=     0.145 Goal=   None    Shift=    0.000
 RMSDP=3.09D-05 MaxDP=1.05D-03 DE=-5.12D-04 OVMax= 2.93D-03

 Cycle   7  Pass 1  IDiag  1:
 RMSU=  1.83D-05    CP:  8.51D-01  8.11D-01  9.15D-01  6.58D-01  6.95D-01
                    CP:  6.25D-01
 E= -693.185987211480     Delta-E=       -0.000073042549 Rises=F Damp=F
 DIIS: error= 1.16D-04 at cycle   7 NSaved=   7.
 NSaved= 7 IEnMin= 7 EnMin= -693.185987211480     IErMin= 7 ErrMin= 1.16D-04
 ErrMax= 1.16D-04  0.00D+00 EMaxC= 1.00D-01 BMatC= 3.82D-06 BMatP= 7.50D-05
 IDIUse=3 WtCom= 9.99D-01 WtEn= 1.16D-03
 Coeff-Com: -0.295D-02 0.413D-02 0.236D-01 0.446D-01 0.170D+00 0.273D+00
 Coeff-Com:  0.487D+00
 Coeff-En:   0.000D+00 0.000D+00 0.000D+00 0.000D+00 0.000D+00 0.000D+00
 Coeff-En:   0.100D+01
 Coeff:     -0.295D-02 0.413D-02 0.236D-01 0.446D-01 0.170D+00 0.273D+00
 Coeff:      0.488D+00
 Gap=     0.145 Goal=   None    Shift=    0.000
 RMSDP=7.52D-06 MaxDP=3.73D-04 DE=-7.30D-05 OVMax= 9.61D-04

 Cycle   8  Pass 1  IDiag  1:
 RMSU=  5.60D-06    CP:  8.51D-01  8.11D-01  9.15D-01  6.59D-01  6.98D-01
                    CP:  6.58D-01  7.51D-01
 E= -693.185990752024     Delta-E=       -0.000003540544 Rises=F Damp=F
 DIIS: error= 4.08D-05 at cycle   8 NSaved=   8.
 NSaved= 8 IEnMin= 8 EnMin= -693.185990752024     IErMin= 8 ErrMin= 4.08D-05
 ErrMax= 4.08D-05  0.00D+00 EMaxC= 1.00D-01 BMatC= 6.31D-07 BMatP= 3.82D-06
 IDIUse=1 WtCom= 1.00D+00 WtEn= 0.00D+00
 Coeff-Com: -0.462D-03 0.280D-03 0.374D-02 0.829D-02 0.383D-01 0.779D-01
 Coeff-Com:  0.309D+00 0.563D+00
 Coeff:     -0.462D-03 0.280D-03 0.374D-02 0.829D-02 0.383D-01 0.779D-01
 Coeff:      0.309D+00 0.563D+00
 Gap=     0.145 Goal=   None    Shift=    0.000
 RMSDP=2.70D-06 MaxDP=9.40D-05 DE=-3.54D-06 OVMax= 3.14D-04

 Cycle   9  Pass 1  IDiag  1:
 RMSU=  2.02D-06    CP:  8.51D-01  8.11D-01  9.15D-01  6.59D-01  6.99D-01
                    CP:  6.43D-01  7.62D-01  7.61D-01
 E= -693.185991365689     Delta-E=       -0.000000613665 Rises=F Damp=F
 DIIS: error= 1.03D-05 at cycle   9 NSaved=   9.
 NSaved= 9 IEnMin= 9 EnMin= -693.185991365689     IErMin= 9 ErrMin= 1.03D-05
 ErrMax= 1.03D-05  0.00D+00 EMaxC= 1.00D-01 BMatC= 4.03D-08 BMatP= 6.31D-07
 IDIUse=1 WtCom= 1.00D+00 WtEn= 0.00D+00
 Coeff-Com: -0.636D-04-0.103D-03 0.438D-03 0.164D-02 0.940D-02 0.235D-01
 Coeff-Com:  0.134D+00 0.301D+00 0.530D+00
 Coeff:     -0.636D-04-0.103D-03 0.438D-03 0.164D-02 0.940D-02 0.235D-01
 Coeff:      0.134D+00 0.301D+00 0.530D+00
 Gap=     0.145 Goal=   None    Shift=    0.000
 RMSDP=7.49D-07 MaxDP=3.07D-05 DE=-6.14D-07 OVMax= 7.42D-05

 Cycle  10  Pass 1  IDiag  1:
 RMSU=  6.28D-07    CP:  8.51D-01  8.11D-01  9.15D-01  6.59D-01  7.00D-01
                    CP:  6.46D-01  7.72D-01  7.60D-01  8.53D-01
 E= -693.185991399858     Delta-E=       -0.000000034168 Rises=F Damp=F
 DIIS: error= 4.81D-06 at cycle  10 NSaved=  10.
 NSaved=10 IEnMin=10 EnMin= -693.185991399858     IErMin=10 ErrMin= 4.81D-06
 ErrMax= 4.81D-06  0.00D+00 EMaxC= 1.00D-01 BMatC= 6.67D-09 BMatP= 4.03D-08
 IDIUse=1 WtCom= 1.00D+00 WtEn= 0.00D+00
 Coeff-Com:  0.107D-04-0.715D-04-0.193D-03 0.272D-04 0.932D-03 0.411D-02
 Coeff-Com:  0.383D-01 0.990D-01 0.319D+00 0.539D+00
 Coeff:      0.107D-04-0.715D-04-0.193D-03 0.272D-04 0.932D-03 0.411D-02
 Coeff:      0.383D-01 0.990D-01 0.319D+00 0.539D+00
 Gap=     0.145 Goal=   None    Shift=    0.000
 RMSDP=2.79D-07 MaxDP=1.37D-05 DE=-3.42D-08 OVMax= 3.89D-05

 Cycle  11  Pass 1  IDiag  1:
 RMSU=  1.96D-07    CP:  8.51D-01  8.11D-01  9.15D-01  6.59D-01  6.99D-01
                    CP:  6.47D-01  7.76D-01  7.61D-01  8.49D-01  7.23D-01
 E= -693.185991406833     Delta-E=       -0.000000006975 Rises=F Damp=F
 DIIS: error= 1.42D-06 at cycle  11 NSaved=  11.
 NSaved=11 IEnMin=11 EnMin= -693.185991406833     IErMin=11 ErrMin= 1.42D-06
 ErrMax= 1.42D-06  0.00D+00 EMaxC= 1.00D-01 BMatC= 4.59D-10 BMatP= 6.67D-09
 IDIUse=1 WtCom= 1.00D+00 WtEn= 0.00D+00
 Coeff-Com:  0.722D-05-0.270D-04-0.124D-03-0.750D-04-0.207D-04 0.678D-03
 Coeff-Com:  0.115D-01 0.317D-01 0.134D+00 0.297D+00 0.526D+00
 Coeff:      0.722D-05-0.270D-04-0.124D-03-0.750D-04-0.207D-04 0.678D-03
 Coeff:      0.115D-01 0.317D-01 0.134D+00 0.297D+00 0.526D+00
 Gap=     0.145 Goal=   None    Shift=    0.000
 RMSDP=7.17D-08 MaxDP=2.03D-06 DE=-6.97D-09 OVMax= 1.12D-05

 Cycle  12  Pass 1  IDiag  1:
 RMSU=  6.08D-08    CP:  8.51D-01  8.11D-01  9.15D-01  6.59D-01  6.99D-01
                    CP:  6.47D-01  7.76D-01  7.63D-01  8.46D-01  7.41D-01
                    CP:  8.44D-01
 E= -693.185991407331     Delta-E=       -0.000000000499 Rises=F Damp=F
 DIIS: error= 5.00D-07 at cycle  12 NSaved=  12.
 NSaved=12 IEnMin=12 EnMin= -693.185991407331     IErMin=12 ErrMin= 5.00D-07
 ErrMax= 5.00D-07  0.00D+00 EMaxC= 1.00D-01 BMatC= 1.05D-10 BMatP= 4.59D-10
 IDIUse=1 WtCom= 1.00D+00 WtEn= 0.00D+00
 Coeff-Com:  0.221D-05-0.281D-05-0.459D-04-0.576D-04-0.163D-03-0.338D-03
 Coeff-Com:  0.236D-03 0.120D-02 0.264D-01 0.945D-01 0.346D+00 0.532D+00
 Coeff:      0.221D-05-0.281D-05-0.459D-04-0.576D-04-0.163D-03-0.338D-03
 Coeff:      0.236D-03 0.120D-02 0.264D-01 0.945D-01 0.346D+00 0.532D+00
 Gap=     0.145 Goal=   None    Shift=    0.000
 RMSDP=3.62D-08 MaxDP=1.75D-06 DE=-4.99D-10 OVMax= 4.74D-06

 Cycle  13  Pass 1  IDiag  1:
 RMSU=  2.51D-08    CP:  8.51D-01  8.11D-01  9.15D-01  6.59D-01  6.99D-01
                    CP:  6.47D-01  7.76D-01  7.63D-01  8.51D-01  7.51D-01
                    CP:  8.13D-01  6.58D-01
 E= -693.185991407449     Delta-E=       -0.000000000117 Rises=F Damp=F
 DIIS: error= 9.77D-08 at cycle  13 NSaved=  13.
 NSaved=13 IEnMin=13 EnMin= -693.185991407449     IErMin=13 ErrMin= 9.77D-08
 ErrMax= 9.77D-08  0.00D+00 EMaxC= 1.00D-01 BMatC= 4.00D-12 BMatP= 1.05D-10
 IDIUse=1 WtCom= 1.00D+00 WtEn= 0.00D+00
 Coeff-Com:  0.572D-06 0.177D-06-0.132D-04-0.244D-04-0.672D-04-0.209D-03
 Coeff-Com: -0.618D-03-0.167D-02 0.408D-02 0.248D-01 0.127D+00 0.241D+00
 Coeff-Com:  0.606D+00
 Coeff:      0.572D-06 0.177D-06-0.132D-04-0.244D-04-0.672D-04-0.209D-03
 Coeff:     -0.618D-03-0.167D-02 0.408D-02 0.248D-01 0.127D+00 0.241D+00
 Coeff:      0.606D+00
 Gap=     0.145 Goal=   None    Shift=    0.000
 RMSDP=7.98D-09 MaxDP=2.13D-07 DE=-1.17D-10 OVMax= 7.88D-07

 SCF Done:  E(RB3LYP) =  -693.185991407     A.U. after   13 cycles
            NFock= 13  Conv=0.80D-08     -V/T= 2.0031
 KE= 6.910182483229D+02 PE=-3.962805469835D+03 EE= 1.401324895697D+03
 Leave Link  502 at Tue Dec  4 12:14:03 2018, MaxMem=   268435456 cpu:           25035.0 elap:            3133.8
 (Enter /home/apps/g16/g16/l601.exe)
 Copying SCF densities to generalized density rwf, IOpCl= 0 IROHF=0.

 **********************************************************************

            Population analysis using the SCF density.

 **********************************************************************

 Orbital symmetries:
       Occupied  (A) (A) (A) (A) (A) (A) (A) (A) (A) (A) (A) (A)
                 (A) (A) (A) (A) (A) (A) (A) (A) (A) (A) (A) (A)
                 (A) (A) (A) (A) (A) (A) (A) (A) (A) (A) (A) (A)
                 (A) (A) (A) (A) (A) (A) (A) (A) (A) (A) (A) (A)
                 (A) (A) (A) (A) (A) (A) (A) (A) (A) (A) (A) (A)
       Virtual   (A) (A) (A) (A) (A) (A) (A) (A) (A) (A) (A) (A)
                 (A) (A) (A) (A) (A) (A) (A) (A) (A) (A) (A) (A)
                 (A) (A) (A) (A) (A) (A) (A) (A) (A) (A) (A) (A)
                 (A) (A) (A) (A) (A) (A) (A) (A) (A) (A) (A) (A)
                 (A) (A) (A) (A) (A) (A) (A) (A) (A) (A) (A) (A)
                 (A) (A) (A) (A) (A) (A) (A) (A) (A) (A) (A) (A)
                 (A) (A) (A) (A) (A) (A) (A) (A) (A) (A) (A) (A)
                 (A) (A) (A) (A) (A) (A) (A) (A) (A) (A) (A) (A)
                 (A) (A) (A) (A) (A) (A) (A) (A) (A) (A) (A) (A)
                 (A) (A) (A) (A) (A) (A) (A) (A) (A) (A) (A) (A)
                 (A) (A) (A) (A) (A) (A) (A) (A) (A) (A) (A) (A)
                 (A) (A) (A) (A) (A) (A) (A) (A) (A) (A) (A) (A)
                 (A) (A) (A) (A) (A) (A) (A) (A) (A) (A) (A) (A)
                 (A) (A) (A) (A) (A) (A) (A) (A) (A) (A) (A) (A)
                 (A) (A) (A) (A) (A) (A) (A) (A) (A) (A) (A) (A)
                 (A) (A) (A) (A) (A) (A) (A) (A) (A) (A) (A) (A)
                 (A) (A) (A) (A) (A) (A) (A) (A) (A) (A) (A) (A)
                 (A) (A) (A) (A) (A) (A) (A) (A) (A) (A) (A) (A)
                 (A) (A) (A) (A) (A) (A) (A) (A) (A) (A) (A) (A)
                 (A) (A) (A) (A) (A) (A) (A) (A) (A) (A) (A) (A)
                 (A) (A) (A) (A) (A) (A) (A) (A) (A) (A) (A) (A)
                 (A) (A) (A) (A) (A) (A) (A) (A) (A) (A) (A) (A)
                 (A) (A) (A) (A) (A) (A) (A) (A) (A) (A) (A) (A)
                 (A) (A) (A) (A) (A) (A) (A) (A) (A) (A) (A) (A)
                 (A) (A) (A) (A) (A) (A) (A) (A) (A) (A) (A) (A)
                 (A) (A) (A) (A) (A) (A) (A) (A) (A) (A) (A) (A)
                 (A) (A) (A) (A) (A) (A) (A) (A) (A) (A) (A) (A)
                 (A) (A) (A) (A) (A) (A) (A) (A) (A) (A) (A) (A)
                 (A) (A) (A) (A) (A) (A) (A) (A) (A) (A) (A) (A)
                 (A) (A) (A) (A) (A) (A) (A) (A) (A) (A) (A) (A)
                 (A) (A) (A) (A) (A) (A) (A) (A) (A) (A) (A) (A)
                 (A) (A) (A) (A) (A) (A) (A) (A) (A) (A) (A) (A)
                 (A) (A) (A) (A) (A) (A) (A) (A) (A) (A) (A) (A)
                 (A) (A) (A) (A) (A) (A) (A) (A) (A) (A) (A) (A)
                 (A) (A) (A) (A) (A) (A) (A) (A) (A) (A) (A) (A)
                 (A) (A) (A) (A) (A) (A) (A) (A) (A) (A) (A) (A)
                 (A) (A) (A) (A) (A) (A) (A) (A) (A) (A) (A) (A)
                 (A) (A) (A) (A) (A) (A) (A) (A) (A) (A) (A) (A)
                 (A) (A) (A) (A) (A) (A) (A) (A) (A) (A) (A) (A)
                 (A) (A) (A) (A) (A) (A) (A) (A) (A) (A) (A) (A)
                 (A) (A) (A) (A) (A) (A) (A) (A) (A) (A) (A) (A)
                 (A) (A) (A) (A) (A) (A) (A) (A) (A) (A) (A) (A)
                 (A) (A) (A) (A) (A) (A) (A) (A) (A) (A) (A) (A)
                 (A) (A) (A) (A) (A) (A) (A) (A) (A) (A) (A) (A)
                 (A) (A) (A) (A) (A) (A) (A) (A) (A) (A) (A) (A)
                 (A) (A) (A) (A) (A) (A) (A) (A) (A) (A) (A) (A)
                 (A) (A) (A) (A) (A) (A) (A) (A) (A) (A) (A) (A)
                 (A) (A) (A) (A) (A) (A) (A) (A) (A) (A) (A) (A)
                 (A)
 The electronic state is 1-A.
 Alpha  occ. eigenvalues --  -10.18861 -10.18823 -10.18823 -10.18696 -10.18691
 Alpha  occ. eigenvalues --  -10.18556 -10.18556 -10.18539 -10.18539 -10.18456
 Alpha  occ. eigenvalues --  -10.18453 -10.18442 -10.18381 -10.18381 -10.18288
 Alpha  occ. eigenvalues --  -10.18288 -10.16294 -10.16293  -0.91115  -0.87061
 Alpha  occ. eigenvalues --   -0.85304  -0.81909  -0.80321  -0.77150  -0.74844
 Alpha  occ. eigenvalues --   -0.74492  -0.72505  -0.68038  -0.63974  -0.63768
 Alpha  occ. eigenvalues --   -0.61823  -0.60743  -0.55740  -0.55065  -0.52518
 Alpha  occ. eigenvalues --   -0.52044  -0.49300  -0.48086  -0.47780  -0.45091
 Alpha  occ. eigenvalues --   -0.44374  -0.43534  -0.42710  -0.42384  -0.40643
 Alpha  occ. eigenvalues --   -0.39993  -0.39737  -0.38432  -0.38406  -0.37130
 Alpha  occ. eigenvalues --   -0.35035  -0.34800  -0.33875  -0.31039  -0.30850
 Alpha  occ. eigenvalues --   -0.27098  -0.25762  -0.25305  -0.22281  -0.21686
 Alpha virt. eigenvalues --   -0.07229  -0.04990  -0.01491  -0.01296  -0.01065
 Alpha virt. eigenvalues --   -0.00377  -0.00374   0.00914   0.00988   0.01467
 Alpha virt. eigenvalues --    0.02045   0.02654   0.02660   0.03620   0.03678
 Alpha virt. eigenvalues --    0.04448   0.04623   0.04905   0.04971   0.05382
 Alpha virt. eigenvalues --    0.06008   0.06280   0.06721   0.06940   0.06942
 Alpha virt. eigenvalues --    0.07266   0.07544   0.07877   0.08137   0.08325
 Alpha virt. eigenvalues --    0.08607   0.09280   0.09309   0.09672   0.09844
 Alpha virt. eigenvalues --    0.09920   0.10324   0.10514   0.10578   0.10702
 Alpha virt. eigenvalues --    0.10995   0.11939   0.12075   0.12553   0.12633
 Alpha virt. eigenvalues --    0.13057   0.13560   0.13632   0.13936   0.13993
 Alpha virt. eigenvalues --    0.14116   0.14604   0.15367   0.16326   0.16554
 Alpha virt. eigenvalues --    0.16567   0.16572   0.17361   0.17588   0.18337
 Alpha virt. eigenvalues --    0.18977   0.19051   0.19201   0.19564   0.19925
 Alpha virt. eigenvalues --    0.20135   0.20324   0.20690   0.20776   0.20857
 Alpha virt. eigenvalues --    0.21111   0.21382   0.21709   0.22332   0.22842
 Alpha virt. eigenvalues --    0.22867   0.23083   0.23120   0.23227   0.23399
 Alpha virt. eigenvalues --    0.23564   0.23952   0.24138   0.24277   0.24720
 Alpha virt. eigenvalues --    0.25064   0.25364   0.25669   0.25863   0.26405
 Alpha virt. eigenvalues --    0.26602   0.26842   0.27372   0.27441   0.27652
 Alpha virt. eigenvalues --    0.28119   0.28391   0.28428   0.28934   0.29753
 Alpha virt. eigenvalues --    0.29991   0.30094   0.30895   0.31044   0.31065
 Alpha virt. eigenvalues --    0.31379   0.32102   0.32277   0.32561   0.33572
 Alpha virt. eigenvalues --    0.33844   0.33909   0.34622   0.34767   0.34829
 Alpha virt. eigenvalues --    0.35221   0.35728   0.36078   0.37078   0.37158
 Alpha virt. eigenvalues --    0.37388   0.37700   0.38034   0.38244   0.38914
 Alpha virt. eigenvalues --    0.39007   0.40048   0.40152   0.40498   0.40987
 Alpha virt. eigenvalues --    0.41336   0.41777   0.42072   0.42276   0.42781
 Alpha virt. eigenvalues --    0.43272   0.44024   0.44051   0.44425   0.45084
 Alpha virt. eigenvalues --    0.45300   0.45337   0.45780   0.45874   0.46223
 Alpha virt. eigenvalues --    0.46348   0.47057   0.47214   0.47284   0.47395
 Alpha virt. eigenvalues --    0.47616   0.48219   0.48769   0.48913   0.49492
 Alpha virt. eigenvalues --    0.49667   0.49921   0.49981   0.50538   0.50601
 Alpha virt. eigenvalues --    0.51306   0.51361   0.52000   0.52207   0.52564
 Alpha virt. eigenvalues --    0.53112   0.53966   0.55306   0.55448   0.56316
 Alpha virt. eigenvalues --    0.57186   0.58304   0.59389   0.59452   0.59502
 Alpha virt. eigenvalues --    0.59863   0.60339   0.60805   0.61057   0.61572
 Alpha virt. eigenvalues --    0.62355   0.65474   0.65576   0.66185   0.66456
 Alpha virt. eigenvalues --    0.67024   0.67688   0.67821   0.68029   0.68304
 Alpha virt. eigenvalues --    0.69215   0.70562   0.70751   0.72076   0.72369
 Alpha virt. eigenvalues --    0.72508   0.73227   0.73437   0.73868   0.75422
 Alpha virt. eigenvalues --    0.75953   0.76753   0.76828   0.77044   0.77595
 Alpha virt. eigenvalues --    0.77656   0.78635   0.79043   0.79790   0.80454
 Alpha virt. eigenvalues --    0.80565   0.80588   0.80915   0.81865   0.82043
 Alpha virt. eigenvalues --    0.82387   0.83346   0.83723   0.84743   0.84936
 Alpha virt. eigenvalues --    0.85281   0.85411   0.85859   0.86588   0.86595
 Alpha virt. eigenvalues --    0.87770   0.87931   0.88064   0.89337   0.89422
 Alpha virt. eigenvalues --    0.90755   0.91379   0.91803   0.92708   0.93256
 Alpha virt. eigenvalues --    0.94549   0.95002   0.95465   0.95594   0.96749
 Alpha virt. eigenvalues --    0.97475   0.97552   0.99013   0.99313   0.99367
 Alpha virt. eigenvalues --    1.00029   1.00254   1.03431   1.05319   1.05462
 Alpha virt. eigenvalues --    1.06395   1.07288   1.07933   1.08066   1.08911
 Alpha virt. eigenvalues --    1.09243   1.11802   1.12479   1.13534   1.15226
 Alpha virt. eigenvalues --    1.15744   1.17126   1.19759   1.21491   1.22598
 Alpha virt. eigenvalues --    1.22924   1.23604   1.24047   1.25398   1.26010
 Alpha virt. eigenvalues --    1.26658   1.27581   1.28653   1.29621   1.30325
 Alpha virt. eigenvalues --    1.30360   1.32094   1.32928   1.34227   1.34472
 Alpha virt. eigenvalues --    1.35009   1.36075   1.37384   1.37760   1.38214
 Alpha virt. eigenvalues --    1.38630   1.39216   1.40805   1.42108   1.43089
 Alpha virt. eigenvalues --    1.43411   1.46268   1.46761   1.48183   1.49435
 Alpha virt. eigenvalues --    1.50227   1.50848   1.51813   1.52018   1.54278
 Alpha virt. eigenvalues --    1.54320   1.55454   1.56291   1.57401   1.57654
 Alpha virt. eigenvalues --    1.58696   1.59075   1.59635   1.60669   1.61436
 Alpha virt. eigenvalues --    1.61709   1.63530   1.63984   1.64783   1.65118
 Alpha virt. eigenvalues --    1.65353   1.65608   1.66798   1.67811   1.69105
[...]
 596,-0.00002483,-0.00000424,0.00002799,-0.00001492,0.00000352,0.000079
 01,0.00005352,0.00000994,0.00000970,0.00000280,0.00000094,-0.00009656,
 0.00002579,0.00000575,0.00000466,0.00000087,0.00000156,-0.00060083,0.0
 0100677,0.00075462,0.00134746,-0.00041107,-0.00006061,-0.09756220,0.09
 284216,0.00551174,-0.00145247,0.00285250,0.01096726,-0.00845610,-0.038
 57429,-0.00410421,0.00166967,0.00403697,-0.00079241,-0.00203779,0.0081
 7345,-0.00013527,-0.00000784,-0.00076538,-0.00013939,-0.00209197,0.005
 66602,0.00007593,0.00019802,-0.00094333,0.00001232,-0.00007216,0.00007
 447,-0.00006465,0.00007945,-0.00049894,-0.00009620,0.00011842,0.000171
 70,-0.00001069,0.00000336,0.00002616,0.00000652,-0.00000257,0.00006907
 ,-0.00000281,-0.00001322,-0.00001465,-0.00001276,0.00000135,0.00007663
 ,-0.00001551,-0.00001832,-0.00006626,0.00000305,-0.00000509,-0.0000009
 9,0.00000623,0.00000354,-0.00002975,0.00001349,0.00000844,0.00001121,0
 .00000184,0.00000059,-0.00000098,-0.00002030,0.00000870,-0.00001539,0.
 00000080,0.00000158,-0.00000665,-0.00002825,0.00077650,-0.00298688,0.0
 0024381,-0.00009267,0.00006238,-0.01166444,0.01039217,0.02703465,-0.00
 368573,-0.00284461,-0.00078133,0.00834384,-0.02565724,-0.00467784,-0.0
 6466728,0.03733523,0.00631494,-0.00184388,0.02876497,0.00522722,-0.004
 71371,0.00049906,-0.00012614,-0.00106284,-0.00028410,-0.00005417,0.000
 15843,0.00142905,0.00026639,0.00008259,0.00025422,0.00004820,0.0002107
 1,-0.00049220,-0.00008670,0.00056562,0.00240083,0.00053647,-0.00043386
 ,-0.00012287,-0.00003653,-0.00001087,0.00010956,0.00002073,-0.00000544
 ,0.00004930,0.00000953,0.00004157,-0.00012401,-0.00002237,-0.00000861,
 -0.00002956,-0.00000632,-0.00005127,0.00000696,0.00000082,-0.00001657,
 -0.00001435,-0.00000271,0.00003710,-0.00000087,0.00000101,-0.00003117,
 0.00000231,-0.00000058,-0.00001245,-0.00000229,-0.00000453,-0.00000045
 ,-0.00000616,-0.00000110,0.00022547,-0.00127367,-0.00023503,0.00012456
 ,0.00005094,0.00003435,0.00102636,0.00055518,0.00022788,0.06620032,-0.
 00411223,-0.00000069,-0.00155867,0.00500999,-0.01514724,-0.00353810,0.
 03840187,-0.31648815,-0.05111124,0.00060147,-0.00926896,-0.00230957,0.
 00176513,0.00154593,-0.00065816,-0.00003645,0.00055345,0.00028692,-0.0
 0050986,-0.00053241,-0.00012950,-0.00012908,0.00023232,0.00003355,0.00
 041686,0.00026401,0.00005845,-0.00252794,0.00051302,0.00070703,0.00022
 542,0.00006044,-0.00002001,-0.00003149,-0.00007144,-0.00000861,0.00004
 139,0.00004323,0.00001317,0.00002335,0.00000841,-0.00000010,-0.0000029
 1,-0.00001124,-0.00000763,0.00001784,0.00000800,0.00000741,-0.00000275
 ,-0.00000254,0.00000214,0.00000069,-0.00001045,0.00000114,0.00002208,0
 .00000831,-0.00000076,0.00006573,-0.00001684,-0.00003426,0.00000719,-0
 .00000082,0.00000049,0.00035472,-0.00082104,-0.00017534,-0.00001607,-0
 .00009983,0.00016941,-0.00026920,0.00076167,0.00100567,-0.03973242,0.3
 3762539,-0.00101654,-0.00153103,0.00760740,0.00101378,-0.00420782,0.00
 374799,0.00651260,-0.05113473,-0.04591408,0.00000075,-0.00169454,0.002
 93192,0.00010888,-0.00068556,0.00517519,-0.00000842,0.00028151,-0.0009
 4493,-0.00009346,-0.00008712,0.00008705,-0.00002295,0.00004193,0.00004
 363,0.00008200,0.00003858,0.00000710,-0.00037826,0.00081481,-0.0034514
 6,0.00002811,-0.00002762,0.00019025,-0.00000545,-0.00000552,-0.0000298
 8,0.00000807,0.00001333,-0.00002017,0.00000499,-0.00000331,0.00001115,
 -0.00000138,-0.00000824,0.00002805,0.00000284,0.00000717,-0.00002844,-
 0.00000057,0.00000188,-0.00001401,0.00000130,0.00000112,-0.00001629,0.
 00000309,-0.00000120,0.00001489,0.00000809,-0.00003574,0.00016904,0.00
 000137,0.00000020,-0.00000257,0.00006715,-0.00021096,0.00012792,0.0000
 2188,0.00017082,-0.00098218,0.00007489,0.00102365,-0.00449717,-0.00647
 292,0.05715848,0.03542938,0.00030762,0.00081238,0.00015949,-0.00028210
 ,0.00010263,0.00001521,-0.00002519,-0.00000067,-0.00000153,-0.00007679
 ,0.00005169,0.00000293,0.00076635,-0.00109810,-0.00018345,-0.00613691,
 0.00539840,0.00085777,0.00015097,0.00054676,0.00017028,-0.00019856,-0.
 00007075,-0.00001599,0.00004055,-0.00002246,-0.00000732,-0.00001962,-0
 .00007994,-0.00001486,-0.01226748,0.00326722,0.00026189,0.00038826,-0.
 00351808,-0.00076735,-0.00067151,0.00077053,0.00012261,0.00011149,-0.0
 0009724,-0.00001059,-0.36142027,0.01038397,-0.00519533,0.00079865,-0.0
 0006926,0.00002790,0.00096511,0.00246689,0.00029275,-0.01056067,0.0002
 6985,-0.00030866,0.00001142,-0.00003333,-0.00000656,-0.00000425,-0.000
 00934,-0.00000200,-0.00015203,-0.00020863,-0.00004473,-0.00009975,-0.0
 0003559,-0.00001100,-0.00494828,0.00953793,0.00159996,-0.00003214,0.00
 008817,0.00001549,0.00000727,-0.00000314,-0.00000085,0.39256944,0.0003
 8224,0.00056663,0.00013123,-0.00000613,0.00010937,0.00004044,-0.000180
 23,0.00017163,0.00002045,0.00035561,-0.00007578,-0.00004812,-0.0010028
 1,0.00018752,0.00004512,0.00282687,-0.00487934,-0.00093935,0.00058770,
 0.00078637,0.00071193,0.00018394,0.00015592,0.00004539,0.00011207,0.00
 011713,-0.00000984,-0.00003237,-0.00003508,-0.00000432,-0.02568992,0.0
 0778520,0.00024053,-0.00271496,-0.00412112,-0.00186408,-0.00122604,0.0
 0065422,0.00004599,-0.00020974,0.00006377,0.00005013,0.01144660,-0.055
 50564,-0.00328803,-0.00043920,-0.00130267,-0.00005412,0.00197700,-0.00
 440622,-0.00235404,0.03230498,-0.00077460,-0.00051461,0.00003062,-0.00
 003449,-0.00001101,0.00001596,0.00000683,0.00000020,-0.00032174,-0.000
 33015,-0.00009101,-0.00003112,0.00000281,-0.00001931,0.00872147,-0.004
 09961,-0.00111835,-0.00002068,0.00009571,0.00001592,0.00000469,0.00002
 762,0.00000164,-0.02840695,0.06407988,0.00007976,0.00014081,-0.0000675
 8,-0.00000494,0.00004276,-0.00010116,-0.00003492,0.00002437,0.00004393
 ,0.00005951,-0.00005463,0.00021658,-0.00016571,0.00004323,-0.00016970,
 0.00037969,-0.00088348,0.00035736,0.00017754,0.00071051,-0.00284264,0.
 00003134,0.00003988,-0.00005876,0.00001773,-0.00001281,0.00018135,-0.0
 0000612,-0.00000538,-0.00001676,-0.00511315,0.00087596,0.00350638,-0.0
 0061802,-0.00188168,0.00523734,-0.00024811,0.00008964,0.00027333,-0.00
 003152,0.00005263,-0.00022195,-0.00499822,-0.00331165,-0.03716284,-0.0
 0004080,-0.00004620,-0.00107254,0.00020184,-0.00234317,0.00807670,0.00
 563840,-0.00121641,0.00570726,0.00000532,-0.00001240,0.00002626,0.0000
 0271,-0.00000035,0.00000760,-0.00006573,-0.00008854,0.00010428,-0.0000
 1030,-0.00001930,0.00009948,0.00144844,-0.00110046,0.00276902,-0.00000
 473,0.00001832,0.00001067,0.00000061,0.00000146,0.00001956,0.00289416,
 0.00760552,0.02124415,-0.00002749,-0.00000907,0.,0.00000327,-0.0000223
 2,-0.00000353,0.00001837,0.00000571,0.00000135,-0.00004642,-0.00006305
 ,-0.00001248,-0.00007038,-0.00001284,-0.00000598,0.00004607,0.00006510
 ,0.00001029,0.00054538,0.00008669,0.00002027,0.00012477,0.00013055,0.0
 0003711,0.00002984,0.00009027,0.00001866,0.00006995,-0.00001006,-0.000
 00027,-0.00021930,0.00292045,0.00036473,-0.00029011,0.00105458,0.00020
 796,0.00001193,-0.00032746,-0.00004261,-0.00016544,0.00012468,0.000016
 56,0.01042724,0.01147031,0.00226956,-0.00571992,0.00229566,0.00017330,
 -0.01403818,-0.02625344,-0.00525648,-0.16633309,-0.13141467,-0.0272323
 6,0.00000049,-0.00001688,-0.00000455,-0.00000561,0.00001632,0.00000320
 ,0.00006765,0.00005276,0.00001048,-0.00000249,0.00000688,0.00000080,0.
 00000157,-0.00003229,-0.00000835,0.00000403,-0.00000490,-0.00000132,-0
 .00000193,-0.00000359,-0.00000078,0.00132109,-0.00001837,0.00014460,0.
 17391622,0.00000505,-0.00000037,0.00001912,0.00003218,-0.00000580,0.00
 000439,-0.00000337,0.00000981,0.00000073,0.00004731,0.00004156,0.00001
 089,-0.00009464,-0.00002641,-0.00002449,0.00003827,-0.00001788,-0.0000
 2654,-0.00122882,-0.00018592,-0.00012699,0.00013581,-0.00043151,0.0000
 0882,-0.00007639,-0.00005367,-0.00000094,-0.00004687,-0.00005057,-0.00
 000986,0.00356122,-0.00295448,-0.00193455,0.00080371,-0.00019514,0.000
 13897,-0.00003548,0.00020392,0.00018872,0.00018283,-0.00007865,-0.0000
 3572,-0.01904575,-0.01922565,-0.00473277,0.00131755,0.00146919,-0.0007
 7985,0.00426293,0.00733520,0.00081828,-0.13037008,-0.22024926,-0.03689
 851,-0.00001411,-0.00001316,-0.00001482,0.00000359,-0.00005085,-0.0000
 0684,-0.00004312,-0.00001790,-0.00001098,0.00003126,-0.00000055,-0.000
 00300,-0.00002786,-0.00009519,-0.00003738,0.00000644,-0.00000233,-0.00
 000455,0.00000685,-0.00000578,-0.00000157,0.00004535,0.00079419,0.0011
 5558,0.14076292,0.23306843,0.00000256,0.00001881,-0.00009930,0.0000066
 0,0.00000315,-0.00002483,-0.00000031,0.00000094,0.00000563,0.00000799,
 0.00000847,-0.00000980,-0.00002119,-0.00002274,0.00008975,0.00000536,-
 0.00002591,0.00012469,-0.00022387,-0.00009833,0.00033013,0.00003816,0.
 00000873,-0.00046057,-0.00001228,0.00000271,-0.00005729,-0.00000707,-0
 .00000904,-0.00000484,0.00048366,-0.00194826,0.00753482,0.00016140,0.0
 0014460,-0.00081832,0.00001152,0.00018222,-0.00078285,0.00002726,-0.00
 003693,0.00012909,-0.00339533,-0.00406490,0.00319239,-0.00000836,-0.00
 075848,0.00568421,0.00040909,0.00014977,0.00346745,-0.02703885,-0.0369
 2104,-0.04432025,-0.00000403,-0.00001487,0.00006216,0.00000084,-0.0000
 0657,-0.00001476,-0.00000732,-0.00000888,0.00003440,0.00000533,-0.0000
 0352,0.00001870,-0.00000741,-0.00003759,0.00009616,0.00000079,-0.00000
 480,0.00002203,0.00000115,-0.00000180,0.00000319,0.00015624,0.00115438
 ,-0.00520807,0.02938363,0.04162281,0.03384190,-0.00001019,-0.00000086,
 -0.00000002,-0.00000161,-0.00000224,-0.00000013,0.00000836,0.00001978,
 0.00000449,-0.00007539,-0.00003355,-0.00000725,0.00005194,0.00024113,0
 .00004166,-0.00001151,-0.00000299,-0.00000148,-0.00058382,-0.00053387,
 -0.00011419,0.00023457,-0.00012415,-0.00001871,0.00001168,0.00002238,0
 .00000416,0.00004239,0.00004293,0.00000938,0.00133729,0.00196094,0.000
 27727,-0.01066309,0.00031633,-0.00024576,0.00065551,-0.00252507,-0.000
 37567,0.00027541,0.00041894,0.00008384,0.00061458,0.00001774,0.0000386
 1,-0.32816287,0.02987858,-0.00083666,-0.01509319,0.00425185,0.00036024
 ,-0.00003851,-0.00399409,-0.00091553,-0.00002542,0.00006532,0.00000772
 ,0.00000723,0.00002332,0.00000416,0.00087297,0.00045123,0.00009695,-0.
 00000620,-0.00000373,-0.00000091,0.00002783,-0.00000248,-0.00000025,-0
 .00000828,0.00000449,0.00000050,-0.00000707,0.00001088,0.00000156,-0.0
 0006999,-0.00002237,0.00001649,-0.00082241,0.00032083,0.00003791,0.350
 50483,-0.00000241,0.00003530,0.00000957,-0.00001386,-0.00001704,-0.000
 00080,0.00000889,-0.00004971,-0.00000349,0.00010747,-0.00000899,0.0000
 0601,-0.00010714,-0.00040955,-0.00011452,-0.00002966,-0.00000842,-0.00
 000770,0.00140503,0.00018566,0.00004566,0.00025914,0.00008529,0.000014
 74,-0.00012497,0.00003731,0.00000203,0.00005085,-0.00000303,0.00000479
 ,0.00069492,-0.00430771,-0.00176832,0.02847941,-0.00073725,-0.00011606
 ,0.00240371,0.00042601,0.00079892,-0.00049010,0.00020141,0.00002700,-0
 .00022984,-0.00106935,-0.00001846,0.02881200,-0.06157728,-0.00401207,-
 0.02641508,0.00752642,-0.00001770,-0.00272652,-0.00352882,-0.00218384,
 -0.00000271,-0.00000429,-0.00003343,0.00000355,-0.00002884,-0.00000807
 ,-0.00085849,-0.00046130,-0.00015452,0.00000671,-0.00000165,-0.0000008
 1,0.00000536,0.00000774,-0.00000202,0.00000156,0.00000058,-0.00000119,
 0.00001534,-0.00000553,-0.00000332,0.00004463,0.00008835,0.00020567,-0
 .00130755,0.00019271,-0.00002363,-0.03053624,0.06258321,-0.00000031,0.
 00000960,-0.00001473,-0.00000230,-0.00000054,-0.00001450,0.00000248,-0
 .00000325,-0.00003038,0.00001893,0.00000293,-0.00002778,-0.00002302,-0
 .00010691,0.00017443,-0.00000638,-0.00000712,0.00002813,0.00024574,0.0
 0000322,0.00011123,0.00005243,0.00000638,0.00003868,-0.00002321,0.0000
 0524,0.00001213,0.00001088,0.00000461,-0.00002174,0.00004198,-0.001740
 68,0.00497782,0.00498260,-0.00073287,0.00321941,0.00053917,0.00069104,
 -0.00345433,-0.00008491,0.00004690,0.00000500,-0.00000735,-0.00001284,
 -0.00099953,-0.00103447,-0.00398845,-0.03732935,-0.00533286,0.00065347
 ,0.00451132,-0.00068018,-0.00221163,0.00748831,-0.00000490,-0.00003193
 ,0.00016946,0.00000049,-0.00000764,0.00001364,-0.00014618,-0.00012586,
 0.00024341,0.00000103,-0.00000104,0.00000332,0.00000118,-0.00000220,0.
 00001890,-0.00000004,-0.00000113,0.00000695,0.00000239,-0.00000342,0.0
 0001358,0.00002897,0.00020424,-0.00097582,-0.00026433,0.00001204,0.000
 16205,0.00145766,0.00631516,0.02616706,0.00005187,0.00008212,0.0000161
 6,-0.00001626,0.00002692,0.00000531,-0.00002539,0.00001502,0.00000223,
 0.00004453,0.00004311,0.00000746,0.00004392,-0.00004764,-0.00000844,-0
 .00016410,-0.00010076,-0.00002089,0.00010671,0.00027542,0.00007498,-0.
 00029031,0.00005829,0.00000253,0.00007948,-0.00005425,-0.00001000,-0.0
 0007966,-0.00001746,-0.00000473,-0.00070643,-0.00086225,-0.00015889,-0
 .00204902,-0.00316285,-0.00081958,0.00067316,-0.00037785,-0.00005875,-
 0.00000786,-0.00035288,-0.00005444,-0.00569678,-0.00049931,-0.00035021
 ,0.01201385,-0.01845206,-0.00324594,-0.10150056,0.09670925,0.01654591,
 -0.00606326,0.03000406,0.00537148,0.00002900,-0.00009156,-0.00001600,0
 .00000282,0.00000975,0.00000189,-0.00003081,0.00000561,-0.00000213,-0.
 00000323,-0.00000513,-0.00000152,0.00009628,0.00009231,0.00001908,-0.0
 0000549,0.00001397,0.00000253,0.00000015,0.00000476,0.00000074,-0.0004
 6821,0.00133918,0.00023671,0.00115223,-0.00058567,-0.00001491,0.000935
 76,0.00055219,0.00022565,0.10187683,0.00001458,-0.00003968,-0.00000877
 ,0.00002832,0.00001759,0.00000955,-0.00002434,0.00000333,0.00000011,0.
 00006020,0.00001659,-0.00000849,0.00001588,-0.00003638,-0.00001118,0.0
 0001092,0.00002460,0.00001638,0.00003322,0.00011595,0.00020450,-0.0001
 7769,0.00005771,-0.00000945,0.00004538,-0.00001664,-0.00001633,-0.0000
 3802,-0.00001309,-0.00000101,-0.00047633,0.00006843,0.00014355,-0.0040
 6545,-0.00101387,-0.00186794,0.00101616,-0.00062732,-0.00012240,-0.000
 31198,-0.00039957,0.00001411,0.00051828,0.00199063,-0.00074357,0.01208
 742,-0.01832290,-0.00384531,0.09623196,-0.28710597,-0.04427670,-0.0003
 5176,0.00011571,-0.00054343,0.00004342,-0.00012364,-0.00001892,-0.0000
 0608,0.00000105,0.00000027,-0.00004837,0.00000427,-0.00002140,0.000006
 20,0.00000469,-0.00000325,-0.00001653,-0.00002852,-0.00000700,0.000007
 17,-0.00000473,-0.00000016,0.00000184,-0.00000758,-0.00000270,-0.00012
 769,-0.00016353,-0.00004697,0.00041644,0.00055172,0.00069266,-0.000272
 18,0.00084922,0.00102210,-0.10462729,0.30409162,0.00000364,-0.00000730
 ,0.00000808,0.00000558,0.00000952,-0.00002867,-0.00000508,0.00000096,-
 0.00000004,0.00001064,-0.00000885,0.00006799,0.00000333,-0.00001259,0.
 00002350,-0.00000024,0.00001398,-0.00005993,0.00003001,0.00020976,-0.0
 0094212,-0.00004123,-0.00000426,0.00008589,0.00000849,-0.00001851,0.00
 007341,-0.00000854,-0.00000056,-0.00001243,-0.00008727,0.00013510,-0.0
 0073781,-0.00098706,-0.00184817,0.00820425,0.00020005,-0.00015295,0.00
 012780,-0.00004689,0.00001320,-0.00051084,-0.00016125,-0.00076589,0.00
 591155,0.00242342,-0.00451388,0.00303188,0.01645736,-0.04426639,-0.045
 10174,-0.00026387,0.00012135,0.00301843,0.00000906,-0.00002188,-0.0000
 2043,-0.00000104,0.00000062,-0.00000104,-0.00001215,-0.00002022,0.0001
 0985,0.00000058,-0.00000350,0.00002226,-0.00000111,-0.00000464,0.00000
 650,0.00000127,-0.00000001,-0.00000297,0.00000019,-0.00000263,0.000006
 67,-0.00003559,-0.00001483,0.00007071,0.00017112,0.00067073,-0.0030021
 0,0.00007259,0.00104014,-0.00449411,-0.01774735,0.04945209,0.03415244,
 0.00016179,-0.00020673,-0.00003398,0.00017940,0.00049646,0.00009777,0.
 00077628,-0.00217274,-0.00033105,0.00789033,-0.02159822,-0.00390418,-0
 .00337935,-0.00197252,-0.00053263,0.00042546,-0.00109659,-0.00019564,-
 0.00071074,-0.00002292,-0.00000398,-0.00519431,0.00005740,-0.00030634,
 -0.00228438,0.03140987,0.00567068,-0.07400766,0.06103561,0.01052586,0.
 00021960,-0.00007376,0.00001061,-0.00009784,-0.00018216,-0.00003767,-0
 .00049485,0.00013491,0.00002470,0.00039420,0.00131768,0.00025205,-0.00
 003231,0.00009396,0.00001722,0.00003378,0.00007459,0.00001376,-0.00005
 448,-0.00001750,-0.00000429,0.00007314,-0.00000790,-0.00000183,-0.0000
 4959,-0.00004565,-0.00001160,0.00108438,-0.00042494,0.00006223,-0.0000
 5796,0.00014560,0.00002552,-0.00001994,0.00004993,0.00000804,-0.000327
 46,-0.00021430,-0.00004958,0.00000196,0.00000668,-0.00000121,-0.000470
 86,0.00040776,0.00005948,-0.00000447,0.00003371,0.00000742,0.00000267,
 0.00000806,0.00000145,-0.00000079,-0.00000617,-0.00000111,0.00000077,0
 .00000630,0.00000134,0.07594323,-0.00005610,0.00027660,0.00005740,-0.0
 0047445,0.00019543,0.00004039,0.00240863,0.00054768,0.00062328,0.00672
 967,-0.01735900,-0.00365271,-0.00352754,0.00015269,-0.00083556,0.00085
 064,-0.00100219,-0.00017957,-0.00039406,0.00023360,0.00016893,0.001404
 88,0.00221830,-0.00128353,0.00046016,-0.00530430,-0.00189970,0.0606800
 5,-0.30910127,-0.04911559,0.00008907,-0.00002402,0.00016308,-0.0000138
 7,0.00000931,-0.00001318,0.00025481,0.00004199,0.00010236,-0.00014018,
 -0.00052778,-0.00011081,-0.00001081,-0.00003039,-0.00000176,0.00001016
 ,-0.00000336,-0.00000733,0.00000318,0.00000856,0.00000294,-0.00001901,
 -0.00000881,-0.00001876,0.00001783,0.00001148,-0.00001479,0.00026583,0
 .00069902,0.00113186,0.00001609,-0.00005049,-0.00001098,-0.00004595,0.
 00006685,0.00000468,-0.00032743,-0.00016046,-0.00005962,-0.00004730,-0
 .00002745,-0.00002726,-0.00090197,0.00083874,0.00008586,-0.00000524,0.
 00003506,0.00001708,-0.00000286,-0.00000567,-0.00000196,0.00000716,-0.
 00000049,0.00000056,0.00000502,-0.00000967,-0.00000039,-0.06723640,0.3
 2828002,-0.00000604,0.00005413,-0.00002939,-0.00008243,0.00006161,-0.0
 0006844,0.00051922,0.00052316,-0.00241857,0.00135351,-0.00427178,0.002
 35118,-0.00082109,-0.00080171,0.00407255,0.00016575,-0.00022218,0.0000
 2807,-0.00007290,0.00017706,-0.00069174,-0.00005636,-0.00131309,0.0090
 5461,-0.00007358,-0.00122286,0.00475679,0.01045986,-0.04910807,-0.0462
 0379,0.00004083,0.00015953,-0.00086165,-0.00000643,-0.00001689,0.00007
 537,0.00004697,0.00009978,-0.00045993,-0.00001849,-0.00007895,0.000037
 64,-0.00000220,0.00000058,-0.00002230,0.00000181,-0.00000590,0.0000362
 8,-0.00000049,0.00000247,-0.00000642,-0.00000389,-0.00001855,0.0000865
 1,0.00000017,-0.00001617,0.00009027,0.00019046,0.00111676,-0.00515660,
 0.00000147,-0.00000816,0.00000915,-0.00000976,0.00000677,0.00003725,-0
 .00007059,-0.00005714,0.00011000,-0.00001122,-0.00002608,0.00010878,-0
 .00018360,0.00011448,0.00028720,0.00000016,0.00001791,-0.00005415,-0.0
 0000057,-0.00000172,0.00000422,0.00000138,0.00000026,-0.00000255,0.000
 00110,-0.00000036,-0.00000700,-0.01136307,0.05483509,0.03483662\\0.000
 10464,0.00005318,0.00001209,0.00009513,-0.00005882,-0.00000882,0.00000
 687,0.00008766,0.00001643,-0.00011344,-0.00018940,-0.00003800,0.000432
 47,0.00003542,0.00001594,-0.00033760,0.00004646,0.00000171,-0.00027763
 ,-0.00028220,-0.00005847,0.00000631,0.00000641,0.00000135,0.00003787,0
 .00002887,0.00000612,0.00000996,0.00008857,0.00001679,0.00002175,0.000
 42629,0.00007965,-0.00018880,-0.00011782,-0.00002563,0.00008970,0.0000
 1273,0.00000418,0.00002808,0.00003817,0.00000775,0.00005840,-0.0003302
 6,-0.00006048,0.00008885,0.00000963,0.00000372,-0.00006289,0.00009159,
 0.00001560,0.00005058,0.00010459,0.00002060,0.00007358,-0.00002646,-0.
 00000331,-0.00002931,0.00007146,0.00001263,0.00004261,0.00005200,0.000
 01073,-0.00004817,-0.00000882,-0.00000259,0.00011433,-0.00015991,-0.00
 002618,-0.00004819,0.00003616,0.00000557,-0.00007767,0.00000360,-0.000
 00105,-0.00016605,0.00010734,0.00001531,-0.00000736,-0.00004762,-0.000
 00910,0.00000620,-0.00007624,-0.00001398,0.00003831,-0.00004620,-0.000
 00766,0.00005146,0.00004363,0.00000910\\\@


 "TIGER, TIGER BURNING BRIGHT
 IN THE FOREST OF THE NIGHT.
 WHAT IMMORTAL HAND OR EYE
 CAN FRAME THY FEARFUL SYMMETRYE?"
                     - WILLIAM BLAKE
 Job cpu time:       2 days 15 hours 42 minutes 30.5 seconds.
 Elapsed time:       0 days  7 hours 58 minutes 28.1 seconds.
 File lengths (MBytes):  RWF=    847 Int=      0 D2E=      0 Chk=     35 Scr=      1
 Normal termination of Gaussian 16 at Wed Dec  5 01:44:21 2018.
