 Entering Gaussian System, Link 0=g16
 Input=fenol_b3lypd3_n07d_gas_of.com
 Output=fenol_b3lypd3_n07d_gas_of.log
 AtFile(1): N07D_B3LYP.gbs
             -H 0
             6-31G
             P   1 1.00       0.000000000000
                  0.7500000000D+00  0.10000000D+01
             ****
             -He 0
             6-31G**
             ****
             -Li 0
             6-31+G**
             ****
             -Be 0
             6-31+G**
             ****
             -B 0
             6-31G
             P   1 1.00       0.000000000000
                  0.3500000000D-01  0.1000000000D+01
             D   1 1.00       0.000000000000
                  0.3430000000D+00  0.1000000000D+01
             ****
             -C 0
             6-31G
             S   1 1.00       0.000000000000
                  0.7500000000D+01  0.1000000000D+01
             P   1 1.00       0.000000000000
                  0.5000000000D-01  0.1000000000D+01
             D   1 1.00       0.000000000000
                  0.8200000000D+00  0.1000000000D+01
             ****
             -N 0
             6-31G
             S   1 1.00       0.000000000000
                  0.1260000000D+02  0.1000000000D+01
             P   1 1.00       0.000000000000
                  0.5300000000D-01  0.1000000000D+01
             D   1 1.00       0.000000000000
                  0.1015000000D+01  0.1000000000D+01
             ****
             -O 0
             6-31G
             S   1 1.00
                  0.1510000000D+02  0.1000000000D+01
             P   1 1.00       0.000000000000
                  0.6500000000D-01  0.1000000000D+01
             D   1 1.00        0.000000000000
                  0.1190000000D+01  0.1000000000D+01
             D   1 1.00        0.000000000000
                  0.1800000000D+00  0.1000000000D+01
             ****
             -F 0
             6-31G
             S   1 1.00
                  0.1830000000D+02  0.1000000000D+01
             P   1 1.00       0.000000000000
                  0.8300000000D-01  0.1000000000D+01
             D   1 1.00       0.000000000000
                  1.3700000000D+00  0.1000000000D+01
             D   1 1.00       0.000000000000
                  0.2300000000D+00  0.1000000000D+01
             ****
             -Ne 0
             6-31+G**
             ****
             -Na 0
             6-31+G**
             ****
             -Mg 0
             6-31+G**
             ****
             -Al 0
             6-31G
             S   1 1.00      0.000000000000
                  0.3100000000D+01  0.1000000000D+01
             P   1 1.00      0.000000000000
                  0.1500000000D-01  0.1000000000D+01
             D   1 1.00      0.000000000000
                  0.1890000000D+00  0.1000000000D+01
             ****
             -Si 0
             6-31G
             S   1 1.0
                  0.3600000000D+01  0.1000000000D+01
             P   1 1.00       0.000000000000
                  0.3300000000D-01  0.1000000000D+01
             D   1 1.0        0.000000000000
                  0.2750000000D+00  0.1000000000D+01
             ****
             -P  0
             6-31G
             S   1 1.00       0.000000000000
                  0.5500000000D+01  0.1000000000D+01
             P   1 1.00       0.000000000000
                  0.3500000000D-01  0.1000000000D+01
             D   1 1.00       0.000000000000
                  0.3730000000D+00  0.1000000000D+01
             ****
             -S  0
             6-31G
             S   1 1.00       0.000000000000
                  0.8000000000D+01  0.1000000000D+01
             P   1 1.00        0.000000000000
                  0.4100000000D-01  0.1000000000D+01
             D   1 1.00        0.000000000000
                  0.4790000000D+00  0.1000000000D+01
             ****
            -Cl 0
             6-31G
             S   1 1.00      0.000000000000
                  0.8500000000D+01  0.1000000000D+01
             P   1 1.00      0.000000000000
                  0.4800000000D-01  0.1000000000D+01
             D   1 1.00      0.000000000000
                  0.6000000000D+00  0.1000000000D+01
             D   1 1.00       0.000000000000
                  0.1960000000D+00  0.1000000000D+01
             ****
            -Br 0
             S   3 1.00       0.000000000000
                  0.4721881000D+01  0.1749732514D+00
                  0.2257555000D+01 -0.7074172290D+00
                  0.3896080000D+00  0.1258999543D+01
             S   1 1.00       0.000000000000
                  0.1471340000D+00  0.1000000000D+01
             P   3 1.00       0.000000000000
                  0.1896942000D+01 -0.2464576731D+00
                  0.9108990000D+00  0.3623179892D+00
                  0.3168550000D+00  0.8338469725D+00
             P   1 1.00       0.000000000000
                  0.1095030000D+00  0.1000000000D+01
             P   1 1.00       0.000000000000
                  0.3609700000D-01  0.1000000000D+01
             D   1 1.00
                  0.4750000000D+00  0.1000000000D+01
             D   1 1.00
                  0.1280000000D+00  0.1000000000D+01
             ****
            -I   0
             S   3 1.00       0.000000000000
                  0.2122765000D+01  0.2063429899D+01
                  0.1770481000D+01 -0.2869526473D+01
                  0.3130840000D+00  0.1404747074D+01
             S   1 1.00       0.000000000000
                  0.1320000000D+00  0.1000000000D+01
             P   3 1.00       0.000000000000
                  0.2432887000D+01  0.7732753148D+00
                  0.2137249000D+01 -0.1020833156D+01
                  0.3145460000D+00  0.1095666871D+01
             P   1 1.00       0.000000000000
                  0.1049450000D+00  0.1000000000D+01
             P   1 1.00       0.000000000000
                  0.3264100000D-01  0.1000000000D+01
             D   1 1.00
                  0.300000000          1.00000000
             D   1 1.00
                  0.090000000          1.00000000
             ****
             -Zn 0
             SP   6 1.00       0.000000000000
                  0.6936492000D+02 -0.4440098182D-02 -0.7689261805D-02
                  0.2362082000D+02  0.7505253308D-01 -0.2997981924D-01
                  0.1018471000D+02  0.2533111104D+00  0.7082410821D-01
                  0.4334082000D+01 -0.2881897118D+00  0.4046140897D+00
                  0.1810918000D+01 -0.7267052298D+00  0.4882324876D+00
                  0.7148410000D+00 -0.2133439088D+00  0.1751969956D+00
             SP   3 1.00       0.000000000000
                  0.2823842000D+01  0.4898545031D-01 -0.1586762981D+00
                  0.1039543000D+01  0.2592794075D+00  0.8379326898D-01
                  0.1432640000D+00 -0.1115711463D+01  0.9840546881D+00
             SP   1 1.00       0.000000000000
                  0.4929600000D-01  0.1000000000D+01  0.1000000000D+01
             S    1 1.00       0.000000000000
                  0.1620000000D+00  0.1000000000D+01
             D    3 1.00       0.000000000000
                  0.3370764000D+02  0.9262647815D-01
                  0.9061106000D+01  0.4002979920D+00
                  0.2738383000D+01  0.6896607863D+00
             D    1 1.00
                  0.2440000000D+01  0.1000000000D+01
             D    1 1.00       0.000000000000
                  0.7302940000D+00  0.1000000000D+01
             D    1 1.00       0.000000000000
                  0.1620000000D+00  0.1000000000D+01
             ****
             -Br,-I,-Zn 0
             SDDALL
            ****
 Initial command:
 /home/apps/g16avx/g16/l1.exe "/scratch/gaussian/jpablo/Gau-29215.inp" -scrdir="/scratch/gaussian/jpablo/"
 Entering Link 1 = /home/apps/g16avx/g16/l1.exe PID=     29216.
  
 Copyright (c) 1988,1990,1992,1993,1995,1998,2003,2009,2016,
            Gaussian, Inc.  All Rights Reserved.
  
 This is part of the Gaussian(R) 16 program.  It is based on
 the Gaussian(R) 09 system (copyright 2009, Gaussian, Inc.),
 the Gaussian(R) 03 system (copyright 2003, Gaussian, Inc.),
 the Gaussian(R) 98 system (copyright 1998, Gaussian, Inc.),
 the Gaussian(R) 94 system (copyright 1995, Gaussian, Inc.),
 the Gaussian 92(TM) system (copyright 1992, Gaussian, Inc.),
 the Gaussian 90(TM) system (copyright 1990, Gaussian, Inc.),
 the Gaussian 88(TM) system (copyright 1988, Gaussian, Inc.),
 the Gaussian 86(TM) system (copyright 1986, Carnegie Mellon
 University), and the Gaussian 82(TM) system (copyright 1983,
 Carnegie Mellon University). Gaussian is a federally registered
 trademark of Gaussian, Inc.
  
 This software contains proprietary and confidential information,
 including trade secrets, belonging to Gaussian, Inc.
  
 This software is provided under written license and may be
 used, copied, transmitted, or stored only in accord with that
 written license.
  
 The following legend is applicable only to US Government
 contracts under FAR:
  
                    RESTRICTED RIGHTS LEGEND
  
 Use, reproduction and disclosure by the US Government is
 subject to restrictions as set forth in subparagraphs (a)
 and (c) of the Commercial Computer Software - Restricted
 Rights clause in FAR 52.227-19.
  
 Gaussian, Inc.
 340 Quinnipiac St., Bldg. 40, Wallingford CT 06492
  
  
 ---------------------------------------------------------------
 Warning -- This program may not be used in any manner that
 competes with the business of Gaussian, Inc. or will provide
 assistance to any competitor of Gaussian, Inc.  The licensee
 of this program is prohibited from giving any competitor of
 Gaussian, Inc. access to this program.  By using this program,
 the user acknowledges that Gaussian, Inc. is engaged in the
 business of creating and licensing software in the field of
 computational chemistry and represents and warrants to the
 licensee that it is not a competitor of Gaussian, Inc. and that
 it will not use this program in any manner prohibited above.
 ---------------------------------------------------------------
  

 Cite this work as:
 Gaussian 16, Revision A.03,
 M. J. Frisch, G. W. Trucks, H. B. Schlegel, G. E. Scuseria, 
 M. A. Robb, J. R. Cheeseman, G. Scalmani, V. Barone, 
 G. A. Petersson, H. Nakatsuji, X. Li, M. Caricato, A. V. Marenich, 
 J. Bloino, B. G. Janesko, R. Gomperts, B. Mennucci, H. P. Hratchian, 
 J. V. Ortiz, A. F. Izmaylov, J. L. Sonnenberg, D. Williams-Young, 
 F. Ding, F. Lipparini, F. Egidi, J. Goings, B. Peng, A. Petrone, 
 T. Henderson, D. Ranasinghe, V. G. Zakrzewski, J. Gao, N. Rega, 
 G. Zheng, W. Liang, M. Hada, M. Ehara, K. Toyota, R. Fukuda, 
 J. Hasegawa, M. Ishida, T. Nakajima, Y. Honda, O. Kitao, H. Nakai, 
 T. Vreven, K. Throssell, J. A. Montgomery, Jr., J. E. Peralta, 
 F. Ogliaro, M. J. Bearpark, J. J. Heyd, E. N. Brothers, K. N. Kudin, 
 V. N. Staroverov, T. A. Keith, R. Kobayashi, J. Normand, 
 K. Raghavachari, A. P. Rendell, J. C. Burant, S. S. Iyengar, 
 J. Tomasi, M. Cossi, J. M. Millam, M. Klene, C. Adamo, R. Cammi, 
 J. W. Ochterski, R. L. Martin, K. Morokuma, O. Farkas, 
 J. B. Foresman, and D. J. Fox, Gaussian, Inc., Wallingford CT, 2016.
 
 ******************************************
 Gaussian 16:  ES64L-G16RevA.03 25-Dec-2016
                17-Dec-2018 
 ******************************************
 %nprocshared=8
 Will use up to    8 processors via shared memory.
 %mem=2GB
 %chk=fenol_b3lypd3_n07d_gas_of.chk
 ---------------------------------------------------------------
 #p opt freq b3lyp/gen geom=connectivity empiricaldispersion=gd3
 ---------------------------------------------------------------
 1/18=20,19=15,26=3,38=1,57=2/1,3;
 2/9=110,12=2,17=6,18=5,40=1/2;
 3/5=7,11=2,25=1,30=1,71=1,74=-5,124=31/1,2,3;
 4//1;
 5/5=2,38=5/2;
 6/7=2,8=2,9=2,10=2,28=1/1;
 7//1,2,3,16;
 1/18=20,19=15,26=3/3(2);
 2/9=110/2;
 99//99;
 2/9=110/2;
 3/5=7,6=1,11=2,25=1,30=1,71=1,74=-5,82=7,124=31/1,2,3;
 4/5=5,16=3,69=1/1;
 5/5=2,38=5/2;
 7//1,2,3,16;
 1/18=20,19=15,26=3/3(-5);
 2/9=110/2;
 6/7=2,8=2,9=2,10=2,19=2,28=1/1;
 99/9=1/99;
 Leave Link    1 at Mon Dec 17 12:44:18 2018, MaxMem=   268435456 cpu:               0.4 elap:               0.1
 (Enter /home/apps/g16avx/g16/l101.exe)
 -------------------
 Title Card Required
 -------------------
 Symbolic Z-matrix:
 Charge =  0 Multiplicity = 1
 C                    -2.56171  -0.55162   0.00043 
 C                    -1.47217  -0.37497   0.85376 
 C                    -0.7746    0.83276   0.85351 
 C                    -1.16576   1.86411  -0.0012 
 C                    -2.25475   1.68726  -0.85463 
 C                    -2.95304   0.47945  -0.85356 
 H                    -3.11183  -1.50373   0.0011 
 H                    -1.16438  -1.18776   1.52746 
 H                     0.08381   0.97231   1.52654 
 H                    -2.56328   2.49989  -1.52837 
 H                    -3.81163   0.34032  -1.52631 
 O                    -0.45029   3.10226  -0.00128 
 H                    -0.84402   3.69985  -0.64117 
 
 ITRead=  0  0  0  0  0  0  0  0  0  0  0  0  0
 MicOpt= -1 -1 -1 -1 -1 -1 -1 -1 -1 -1 -1 -1 -1
 NAtoms=     13 NQM=       13 NQMF=       0 NMMI=      0 NMMIF=      0
                NMic=       0 NMicF=      0.
                    Isotopes and Nuclear Properties:
 (Nuclear quadrupole moments (NQMom) in fm**2, nuclear magnetic moments (NMagM)
  in nuclear magnetons)

  Atom         1           2           3           4           5           6           7           8           9          10
 IAtWgt=          12          12          12          12          12          12           1           1           1           1
 AtmWgt=  12.0000000  12.0000000  12.0000000  12.0000000  12.0000000  12.0000000   1.0078250   1.0078250   1.0078250   1.0078250
 NucSpn=           0           0           0           0           0           0           1           1           1           1
 AtZEff=   0.0000000   0.0000000   0.0000000   0.0000000   0.0000000   0.0000000   0.0000000   0.0000000   0.0000000   0.0000000
 NQMom=    0.0000000   0.0000000   0.0000000   0.0000000   0.0000000   0.0000000   0.0000000   0.0000000   0.0000000   0.0000000
 NMagM=    0.0000000   0.0000000   0.0000000   0.0000000   0.0000000   0.0000000   2.7928460   2.7928460   2.7928460   2.7928460
 AtZNuc=   6.0000000   6.0000000   6.0000000   6.0000000   6.0000000   6.0000000   1.0000000   1.0000000   1.0000000   1.0000000

  Atom        11          12          13
 IAtWgt=           1          16           1
 AtmWgt=   1.0078250  15.9949146   1.0078250
 NucSpn=           1           0           1
 AtZEff=   0.0000000   0.0000000   0.0000000
 NQMom=    0.0000000   0.0000000   0.0000000
 NMagM=    2.7928460   0.0000000   2.7928460
 AtZNuc=   1.0000000   8.0000000   1.0000000
 Leave Link  101 at Mon Dec 17 12:44:18 2018, MaxMem=   268435456 cpu:               1.4 elap:               0.2
 (Enter /home/apps/g16avx/g16/l103.exe)

 GradGradGradGradGradGradGradGradGradGradGradGradGradGradGradGradGradGrad
 Berny optimization.
 Initialization pass.
                           ----------------------------
                           !    Initial Parameters    !
                           ! (Angstroms and Degrees)  !
 --------------------------                            --------------------------
 ! Name  Definition              Value          Derivative Info.                !
 --------------------------------------------------------------------------------
 ! R1    R(1,2)                  1.3952         estimate D2E/DX2                !
 ! R2    R(1,6)                  1.3948         estimate D2E/DX2                !
 ! R3    R(1,7)                  1.0996         estimate D2E/DX2                !
 ! R4    R(2,3)                  1.3947         estimate D2E/DX2                !
 ! R5    R(2,8)                  1.0997         estimate D2E/DX2                !
 ! R6    R(3,4)                  1.3954         estimate D2E/DX2                !
 ! R7    R(3,9)                  1.0997         estimate D2E/DX2                !
 ! R8    R(4,5)                  1.3948         estimate D2E/DX2                !
 ! R9    R(4,12)                 1.43           estimate D2E/DX2                !
 ! R10   R(5,6)                  1.3951         estimate D2E/DX2                !
 ! R11   R(5,10)                 1.0998         estimate D2E/DX2                !
 ! R12   R(6,11)                 1.0996         estimate D2E/DX2                !
 ! R13   R(12,13)                0.96           estimate D2E/DX2                !
 ! A1    A(2,1,6)              119.9985         estimate D2E/DX2                !
 ! A2    A(2,1,7)              119.9972         estimate D2E/DX2                !
 ! A3    A(6,1,7)              120.0043         estimate D2E/DX2                !
 ! A4    A(1,2,3)              120.0086         estimate D2E/DX2                !
 ! A5    A(1,2,8)              119.9808         estimate D2E/DX2                !
 ! A6    A(3,2,8)              120.0106         estimate D2E/DX2                !
 ! A7    A(2,3,4)              119.9942         estimate D2E/DX2                !
 ! A8    A(2,3,9)              120.0128         estimate D2E/DX2                !
 ! A9    A(4,3,9)              119.993          estimate D2E/DX2                !
 ! A10   A(3,4,5)              119.994          estimate D2E/DX2                !
 ! A11   A(3,4,12)             119.9811         estimate D2E/DX2                !
 ! A12   A(5,4,12)             120.0249         estimate D2E/DX2                !
 ! A13   A(4,5,6)              120.0047         estimate D2E/DX2                !
 ! A14   A(4,5,10)             120.0113         estimate D2E/DX2                !
 ! A15   A(6,5,10)             119.984          estimate D2E/DX2                !
 ! A16   A(1,6,5)              120.0            estimate D2E/DX2                !
 ! A17   A(1,6,11)             120.008          estimate D2E/DX2                !
 ! A18   A(5,6,11)             119.992          estimate D2E/DX2                !
 ! A19   A(4,12,13)            109.5            estimate D2E/DX2                !
 ! D1    D(6,1,2,3)              0.0323         estimate D2E/DX2                !
 ! D2    D(6,1,2,8)            179.9532         estimate D2E/DX2                !
 ! D3    D(7,1,2,3)           -179.9729         estimate D2E/DX2                !
 ! D4    D(7,1,2,8)             -0.052          estimate D2E/DX2                !
 ! D5    D(2,1,6,5)              0.0149         estimate D2E/DX2                !
 ! D6    D(2,1,6,11)           179.9892         estimate D2E/DX2                !
 ! D7    D(7,1,6,5)           -179.9798         estimate D2E/DX2                !
 ! D8    D(7,1,6,11)            -0.0056         estimate D2E/DX2                !
 ! D9    D(1,2,3,4)             -0.0568         estimate D2E/DX2                !
 ! D10   D(1,2,3,9)            179.9619         estimate D2E/DX2                !
 ! D11   D(8,2,3,4)           -179.9777         estimate D2E/DX2                !
 ! D12   D(8,2,3,9)              0.041          estimate D2E/DX2                !
 ! D13   D(2,3,4,5)              0.0341         estimate D2E/DX2                !
 ! D14   D(2,3,4,12)          -179.9964         estimate D2E/DX2                !
 ! D15   D(9,3,4,5)           -179.9846         estimate D2E/DX2                !
 ! D16   D(9,3,4,12)            -0.0151         estimate D2E/DX2                !
 ! D17   D(3,4,5,6)              0.0131         estimate D2E/DX2                !
 ! D18   D(3,4,5,10)          -179.9995         estimate D2E/DX2                !
 ! D19   D(12,4,5,6)          -179.9563         estimate D2E/DX2                !
 ! D20   D(12,4,5,10)            0.0311         estimate D2E/DX2                !
 ! D21   D(3,4,12,13)          180.0            estimate D2E/DX2                !
 ! D22   D(5,4,12,13)           -0.0306         estimate D2E/DX2                !
 ! D23   D(4,5,6,1)             -0.0376         estimate D2E/DX2                !
 ! D24   D(4,5,6,11)           179.9881         estimate D2E/DX2                !
 ! D25   D(10,5,6,1)           179.975          estimate D2E/DX2                !
 ! D26   D(10,5,6,11)            0.0007         estimate D2E/DX2                !
 --------------------------------------------------------------------------------
 Trust Radius=3.00D-01 FncErr=1.00D-07 GrdErr=1.00D-06 EigMax=2.50D+02 EigMin=1.00D-04
 Number of steps in this run=     68 maximum allowed number of steps=    100.
 GradGradGradGradGradGradGradGradGradGradGradGradGradGradGradGradGradGrad

 Leave Link  103 at Mon Dec 17 12:44:19 2018, MaxMem=   268435456 cpu:               0.1 elap:               0.0
 (Enter /home/apps/g16avx/g16/l202.exe)
                          Input orientation:                          
 ---------------------------------------------------------------------
 Center     Atomic      Atomic             Coordinates (Angstroms)
 Number     Number       Type             X           Y           Z
 ---------------------------------------------------------------------
      1          6           0       -2.561709   -0.551624    0.000429
      2          6           0       -1.472171   -0.374966    0.853758
      3          6           0       -0.774599    0.832765    0.853512
      4          6           0       -1.165760    1.864113   -0.001199
      5          6           0       -2.254753    1.687256   -0.854635
      6          6           0       -2.953042    0.479447   -0.853561
      7          1           0       -3.111826   -1.503734    0.001096
      8          1           0       -1.164379   -1.187761    1.527457
      9          1           0        0.083809    0.972307    1.526536
     10          1           0       -2.563276    2.499886   -1.528371
     11          1           0       -3.811635    0.340319   -1.526310
     12          8           0       -0.450292    3.102259   -0.001276
     13          1           0       -0.844020    3.699846   -0.641172
 ---------------------------------------------------------------------
                    Distance matrix (angstroms):
                    1          2          3          4          5
     1  C    0.000000
     2  C    1.395160   0.000000
     3  C    2.416205   1.394712   0.000000
     4  C    2.790065   2.416260   1.395427   0.000000
     5  C    2.416183   2.789946   2.416356   1.394825   0.000000
     6  C    1.394829   2.416183   2.790080   2.416236   1.395138
     7  H    1.099610   2.165553   3.412986   3.889675   3.413102
     8  H    2.165414   1.099655   2.165330   3.413316   3.889601
     9  H    3.413229   2.165375   1.099680   2.165806   3.413209
    10  H    3.413055   3.889707   3.413506   2.165528   1.099761
    11  H    2.165365   3.413128   3.889684   3.412999   2.165471
    12  O    4.220065   3.723763   2.446720   1.430000   2.446740
    13  H    4.630023   4.385600   3.234046   1.970533   2.467034
                    6          7          8          9         10
     6  C    0.000000
     7  H    2.165331   0.000000
     8  H    3.412938   2.494427   0.000000
     9  H    3.889760   4.320860   2.494768   0.000000
    10  H    2.165516   4.320781   4.989362   4.321228   0.000000
    11  H    1.099604   2.494641   4.320704   4.989364   2.494420
    12  O    3.724149   5.319675   4.609904   2.675101   2.675738
    13  H    3.855393   5.712504   5.356705   3.605454   2.276591
                   11         12         13
    11  H    0.000000
    12  O    4.610061   0.000000
    13  H    4.569095   0.960000   0.000000
 Stoichiometry    C6H6O
 Framework group  C1[X(C6H6O)]
 Deg. of freedom    33
 Full point group                 C1      NOp   1
 Largest Abelian subgroup         C1      NOp   1
 Largest concise Abelian subgroup C1      NOp   1
                         Standard orientation:                         
 ---------------------------------------------------------------------
 Center     Atomic      Atomic             Coordinates (Angstroms)
 Number     Number       Type             X           Y           Z
 ---------------------------------------------------------------------
      1          6           0       -1.859066    0.062329    0.000071
      2          6           0       -1.214229   -1.174868   -0.000349
      3          6           0        0.179177   -1.235212    0.000112
      4          6           0        0.928403   -0.057979   -0.000205
      5          6           0        0.283652    1.178885   -0.000263
      6          6           0       -1.110187    1.239074    0.000271
      7          1           0       -2.957656    0.109686    0.000158
      8          1           0       -1.804916   -2.102408    0.000270
      9          1           0        0.687516   -2.210347    0.000414
     10          1           0        0.873850    2.106862   -0.000521
     11          1           0       -1.618257    2.214263    0.000423
     12          8           0        2.357050   -0.120174    0.000191
     13          1           0        2.716560    0.769968   -0.000101
 ---------------------------------------------------------------------
 Rotational constants (GHZ):           5.6379237           2.5532427           1.7573795
 Leave Link  202 at Mon Dec 17 12:44:19 2018, MaxMem=   268435456 cpu:               0.1 elap:               0.0
 (Enter /home/apps/g16avx/g16/l301.exe)
 General basis read from cards:  (5D, 7F)
 Centers:       7      8      9     10     11     13
 6-31G
 P 1 1.00 0.000000000000
     Exponent=  7.5000000000D-01 Coefficients=  1.0000000000D+00
 ****
 Centers:       1      2      3      4      5      6
 6-31G
 S 1 1.00 0.000000000000
     Exponent=  7.5000000000D+00 Coefficients=  1.0000000000D+00
 P 1 1.00 0.000000000000
     Exponent=  5.0000000000D-02 Coefficients=  1.0000000000D+00
 D 1 1.00 0.000000000000
     Exponent=  8.2000000000D-01 Coefficients=  1.0000000000D+00
 ****
 Centers:      12
 6-31G
 S 1 1.00
     Exponent=  1.5100000000D+01 Coefficients=  1.0000000000D+00
 P 1 1.00 0.000000000000
     Exponent=  6.5000000000D-02 Coefficients=  1.0000000000D+00
 D 1 1.00 0.000000000000
     Exponent=  1.1900000000D+00 Coefficients=  1.0000000000D+00
 D 1 1.00 0.000000000000
     Exponent=  1.8000000000D-01 Coefficients=  1.0000000000D+00
 ****
 Ernie: Thresh=  0.10000D-02 Tol=  0.10000D-05 Strict=F.
 There are   169 symmetry adapted cartesian basis functions of A   symmetry.
 There are   161 symmetry adapted basis functions of A   symmetry.
   161 basis functions,   272 primitive gaussians,   169 cartesian basis functions
    25 alpha electrons       25 beta electrons
       nuclear repulsion energy       268.9520819373 Hartrees.
 IExCor=  402 DFT=T Ex+Corr=B3LYP ExCW=0 ScaHFX=  0.200000
 ScaDFX=  0.800000  0.720000  1.000000  0.810000 ScalE2=  1.000000  1.000000
 IRadAn=      5 IRanWt=     -1 IRanGd=            0 ICorTp=0 IEmpDi=131
 NAtoms=   13 NActive=   13 NUniq=   13 SFac= 1.00D+00 NAtFMM=   60 NAOKFM=F Big=F
 Integral buffers will be    131072 words long.
 Raffenetti 2 integral format.
 Two-electron integral symmetry is turned on.
 R6Disp:  Grimme-D3 Dispersion energy=       -0.0065251500 Hartrees.
 Nuclear repulsion after empirical dispersion term =      268.9455567873 Hartrees.
 Leave Link  301 at Mon Dec 17 12:44:19 2018, MaxMem=   268435456 cpu:               1.1 elap:               0.2
 (Enter /home/apps/g16avx/g16/l302.exe)
 NPDir=0 NMtPBC=     1 NCelOv=     1 NCel=       1 NClECP=     1 NCelD=      1
         NCelK=      1 NCelE2=     1 NClLst=     1 CellRange=     0.0.
 One-electron integrals computed using PRISM.
 One-electron integral symmetry used in STVInt
 NBasis=   161 RedAO= T EigKep=  2.50D-05  NBF=   161
 NBsUse=   161 1.00D-06 EigRej= -1.00D+00 NBFU=   161
 Precomputing XC quadrature grid using
 IXCGrd= 4 IRadAn=           5 IRanWt=          -1 IRanGd=           0 AccXCQ= 0.00D+00.
 Generated NRdTot=       0 NPtTot=           0 NUsed=           0 NTot=          32
 NSgBfM=   168   168   168   168   168 MxSgAt=    13 MxSgA2=    13.
 Leave Link  302 at Mon Dec 17 12:44:19 2018, MaxMem=   268435456 cpu:               2.9 elap:               0.4
 (Enter /home/apps/g16avx/g16/l303.exe)
 DipDrv:  MaxL=1.
 Leave Link  303 at Mon Dec 17 12:44:19 2018, MaxMem=   268435456 cpu:               0.3 elap:               0.1
 (Enter /home/apps/g16avx/g16/l401.exe)
 ExpMin= 5.00D-02 ExpMax= 5.48D+03 ExpMxC= 8.25D+02 IAcc=3 IRadAn=         5 AccDes= 0.00D+00
 Harris functional with IExCor=  402 and IRadAn=       5 diagonalized for initial guess.
 HarFok:  IExCor=  402 AccDes= 0.00D+00 IRadAn=         5 IDoV= 1 UseB2=F ITyADJ=14
 ICtDFT=  3500011 ScaDFX=  1.000000  1.000000  1.000000  1.000000
 FoFCou: FMM=F IPFlag=           0 FMFlag=      100000 FMFlg1=           0
         NFxFlg=           0 DoJE=T BraDBF=F KetDBF=T FulRan=T
         wScrn=  0.000000 ICntrl=       500 IOpCl=  0 I1Cent=   200000004 NGrid=           0
         NMat0=    1 NMatS0=      1 NMatT0=    0 NMatD0=    1 NMtDS0=    0 NMtDT0=    0
 Petite list used in FoFCou.
 Harris En= -307.507475875936    
 JPrj=0 DoOrth=F DoCkMO=F.
 Leave Link  401 at Mon Dec 17 12:44:21 2018, MaxMem=   268435456 cpu:              12.7 elap:               1.6
 (Enter /home/apps/g16avx/g16/l502.exe)
 Integral symmetry usage will be decided dynamically.
 Closed shell SCF:
 Using DIIS extrapolation, IDIIS=  1040.
 NGot=   268435456 LenX=   268375197 LenY=   268346195
 Requested convergence on RMS density matrix=1.00D-08 within 128 cycles.
 Requested convergence on MAX density matrix=1.00D-06.
 Requested convergence on             energy=1.00D-06.
 No special actions if energy rises.
 Fock matrices will be formed incrementally for  20 cycles.
 Integral accuracy reduced to 1.0D-05 until final iterations.

 Cycle   1  Pass 0  IDiag  1:
 FoFJK:  IHMeth= 1 ICntrl=       0 DoSepK=F KAlg= 0 I1Cent=           0 FoldK=F
 IRaf= 950000000 NMat=       1 IRICut=       1 DoRegI=T DoRafI=F ISym2E= 0 IDoP0=0 IntGTp=1.
 FoFCou: FMM=F IPFlag=           0 FMFlag=      100000 FMFlg1=           0
         NFxFlg=           0 DoJE=F BraDBF=F KetDBF=F FulRan=T
         wScrn=  0.000000 ICntrl=         0 IOpCl=  0 I1Cent=           0 NGrid=           0
         NMat0=    1 NMatS0=      1 NMatT0=    0 NMatD0=    1 NMtDS0=    0 NMtDT0=    0
 Symmetry not used in FoFCou.
 E= -307.323488659295    
 DIIS: error= 3.30D-02 at cycle   1 NSaved=   1.
 NSaved= 1 IEnMin= 1 EnMin= -307.323488659295     IErMin= 1 ErrMin= 3.30D-02
 ErrMax= 3.30D-02  0.00D+00 EMaxC= 1.00D-01 BMatC= 1.59D-01 BMatP= 1.59D-01
 IDIUse=3 WtCom= 6.70D-01 WtEn= 3.30D-01
 Coeff-Com:  0.100D+01
 Coeff-En:   0.100D+01
 Coeff:      0.100D+01
 Gap=     0.230 Goal=   None    Shift=    0.000
 GapD=    0.230 DampG=1.000 DampE=0.500 DampFc=0.5000 IDamp=-1.
 Damping current iteration by 5.00D-01
 RMSDP=5.52D-03 MaxDP=1.06D-01              OVMax= 1.95D-01

 Cycle   2  Pass 0  IDiag  1:
 RMSU=  2.70D-03    CP:  9.75D-01
 E= -307.394567921873     Delta-E=       -0.071079262578 Rises=F Damp=T
 DIIS: error= 6.07D-03 at cycle   2 NSaved=   2.
 NSaved= 2 IEnMin= 2 EnMin= -307.394567921873     IErMin= 2 ErrMin= 6.07D-03
 ErrMax= 6.07D-03  0.00D+00 EMaxC= 1.00D-01 BMatC= 8.56D-03 BMatP= 1.59D-01
 IDIUse=3 WtCom= 9.39D-01 WtEn= 6.07D-02
 Coeff-Com:  0.903D-01 0.910D+00
 Coeff-En:   0.164D+00 0.836D+00
 Coeff:      0.948D-01 0.905D+00
 Gap=     0.253 Goal=   None    Shift=    0.000
 RMSDP=1.67D-03 MaxDP=2.71D-02 DE=-7.11D-02 OVMax= 1.25D-01

 Cycle   3  Pass 0  IDiag  1:
 RMSU=  1.59D-03    CP:  9.63D-01  8.39D-01
 E= -307.490326634792     Delta-E=       -0.095758712919 Rises=F Damp=F
 DIIS: error= 4.59D-03 at cycle   3 NSaved=   3.
 NSaved= 3 IEnMin= 3 EnMin= -307.490326634792     IErMin= 3 ErrMin= 4.59D-03
 ErrMax= 4.59D-03  0.00D+00 EMaxC= 1.00D-01 BMatC= 3.89D-03 BMatP= 8.56D-03
 IDIUse=3 WtCom= 9.54D-01 WtEn= 4.59D-02
 Coeff-Com: -0.511D-02 0.381D+00 0.625D+00
 Coeff-En:   0.000D+00 0.000D+00 0.100D+01
 Coeff:     -0.487D-02 0.363D+00 0.642D+00
 Gap=     0.217 Goal=   None    Shift=    0.000
 RMSDP=5.99D-04 MaxDP=1.85D-02 DE=-9.58D-02 OVMax= 4.24D-02

 Cycle   4  Pass 0  IDiag  1:
 RMSU=  5.75D-04    CP:  9.63D-01  8.60D-01  9.00D-01
 E= -307.492256984849     Delta-E=       -0.001930350057 Rises=F Damp=F
 DIIS: error= 3.74D-03 at cycle   4 NSaved=   4.
 NSaved= 4 IEnMin= 4 EnMin= -307.492256984849     IErMin= 4 ErrMin= 3.74D-03
 ErrMax= 3.74D-03  0.00D+00 EMaxC= 1.00D-01 BMatC= 1.89D-03 BMatP= 3.89D-03
 IDIUse=3 WtCom= 9.63D-01 WtEn= 3.74D-02
 Coeff-Com: -0.161D-01 0.118D+00 0.428D+00 0.470D+00
 Coeff-En:   0.000D+00 0.000D+00 0.368D+00 0.632D+00
 Coeff:     -0.155D-01 0.113D+00 0.426D+00 0.476D+00
 Gap=     0.216 Goal=   None    Shift=    0.000
 RMSDP=3.35D-04 MaxDP=7.32D-03 DE=-1.93D-03 OVMax= 2.17D-02

 Cycle   5  Pass 0  IDiag  1:
 RMSU=  1.29D-04    CP:  9.64D-01  8.67D-01  8.74D-01  4.69D-01
 E= -307.494390094817     Delta-E=       -0.002133109969 Rises=F Damp=F
 DIIS: error= 3.60D-04 at cycle   5 NSaved=   5.
 NSaved= 5 IEnMin= 5 EnMin= -307.494390094817     IErMin= 5 ErrMin= 3.60D-04
 ErrMax= 3.60D-04  0.00D+00 EMaxC= 1.00D-01 BMatC= 2.76D-05 BMatP= 1.89D-03
 IDIUse=3 WtCom= 9.96D-01 WtEn= 3.60D-03
 Coeff-Com: -0.573D-02 0.121D-01 0.979D-01 0.168D+00 0.728D+00
 Coeff-En:   0.000D+00 0.000D+00 0.000D+00 0.000D+00 0.100D+01
 Coeff:     -0.571D-02 0.120D-01 0.975D-01 0.168D+00 0.729D+00
 Gap=     0.217 Goal=   None    Shift=    0.000
 RMSDP=4.97D-05 MaxDP=1.26D-03 DE=-2.13D-03 OVMax= 3.02D-03

 Cycle   6  Pass 0  IDiag  1:
 RMSU=  2.83D-05    CP:  9.64D-01  8.71D-01  8.81D-01  5.24D-01  8.45D-01
 E= -307.494412603578     Delta-E=       -0.000022508760 Rises=F Damp=F
 DIIS: error= 2.79D-04 at cycle   6 NSaved=   6.
 NSaved= 6 IEnMin= 6 EnMin= -307.494412603578     IErMin= 6 ErrMin= 2.79D-04
 ErrMax= 2.79D-04  0.00D+00 EMaxC= 1.00D-01 BMatC= 9.48D-06 BMatP= 2.76D-05
 IDIUse=3 WtCom= 9.97D-01 WtEn= 2.79D-03
 Coeff-Com: -0.306D-02 0.293D-02 0.435D-01 0.849D-01 0.464D+00 0.408D+00
 Coeff-En:   0.000D+00 0.000D+00 0.000D+00 0.000D+00 0.190D+00 0.810D+00
 Coeff:     -0.306D-02 0.293D-02 0.434D-01 0.846D-01 0.463D+00 0.409D+00
 Gap=     0.216 Goal=   None    Shift=    0.000
 RMSDP=1.67D-05 MaxDP=6.15D-04 DE=-2.25D-05 OVMax= 9.43D-04

 Cycle   7  Pass 0  IDiag  1:
 RMSU=  7.15D-06    CP:  9.64D-01  8.69D-01  8.83D-01  5.16D-01  8.46D-01
                    CP:  5.22D-01
 E= -307.494420979519     Delta-E=       -0.000008375942 Rises=F Damp=F
 DIIS: error= 2.96D-05 at cycle   7 NSaved=   7.
 NSaved= 7 IEnMin= 7 EnMin= -307.494420979519     IErMin= 7 ErrMin= 2.96D-05
 ErrMax= 2.96D-05  0.00D+00 EMaxC= 1.00D-01 BMatC= 9.48D-08 BMatP= 9.48D-06
 IDIUse=1 WtCom= 1.00D+00 WtEn= 0.00D+00
 Coeff-Com: -0.666D-03 0.675D-05 0.924D-02 0.196D-01 0.122D+00 0.140D+00
 Coeff-Com:  0.710D+00
 Coeff:     -0.666D-03 0.675D-05 0.924D-02 0.196D-01 0.122D+00 0.140D+00
 Coeff:      0.710D+00
 Gap=     0.216 Goal=   None    Shift=    0.000
 RMSDP=2.66D-06 MaxDP=7.46D-05 DE=-8.38D-06 OVMax= 1.37D-04

 Initial convergence to 1.0D-05 achieved.  Increase integral accuracy.
 Cycle   8  Pass 1  IDiag  1:
 E= -307.494417414517     Delta-E=        0.000003565002 Rises=F Damp=F
 DIIS: error= 9.85D-06 at cycle   1 NSaved=   1.
 NSaved= 1 IEnMin= 1 EnMin= -307.494417414517     IErMin= 1 ErrMin= 9.85D-06
 ErrMax= 9.85D-06  0.00D+00 EMaxC= 1.00D-01 BMatC= 3.82D-08 BMatP= 3.82D-08
 IDIUse=1 WtCom= 1.00D+00 WtEn= 0.00D+00
 Coeff-Com:  0.100D+01
 Coeff:      0.100D+01
 Gap=     0.216 Goal=   None    Shift=    0.000
 RMSDP=2.66D-06 MaxDP=7.46D-05 DE= 3.57D-06 OVMax= 1.65D-04

 Cycle   9  Pass 1  IDiag  1:
 RMSU=  1.34D-05    CP:  1.00D+00
 E= -307.494417377963     Delta-E=        0.000000036554 Rises=F Damp=F
 DIIS: error= 1.78D-05 at cycle   2 NSaved=   2.
 NSaved= 2 IEnMin= 1 EnMin= -307.494417414517     IErMin= 1 ErrMin= 9.85D-06
 ErrMax= 1.78D-05  0.00D+00 EMaxC= 1.00D-01 BMatC= 7.84D-08 BMatP= 3.82D-08
 IDIUse=1 WtCom= 1.00D+00 WtEn= 0.00D+00
 Coeff-Com:  0.595D+00 0.405D+00
 Coeff:      0.595D+00 0.405D+00
 Gap=     0.216 Goal=   None    Shift=    0.000
 RMSDP=1.71D-06 MaxDP=5.56D-05 DE= 3.66D-08 OVMax= 1.16D-04

 Cycle  10  Pass 1  IDiag  1:
 RMSU=  1.71D-06    CP:  1.00D+00  1.00D+00
 E= -307.494417453496     Delta-E=       -0.000000075533 Rises=F Damp=F
 DIIS: error= 2.87D-06 at cycle   3 NSaved=   3.
 NSaved= 3 IEnMin= 3 EnMin= -307.494417453496     IErMin= 3 ErrMin= 2.87D-06
 ErrMax= 2.87D-06  0.00D+00 EMaxC= 1.00D-01 BMatC= 1.33D-09 BMatP= 3.82D-08
 IDIUse=1 WtCom= 1.00D+00 WtEn= 0.00D+00
 Coeff-Com:  0.126D+00 0.141D+00 0.733D+00
 Coeff:      0.126D+00 0.141D+00 0.733D+00
 Gap=     0.216 Goal=   None    Shift=    0.000
 RMSDP=4.22D-07 MaxDP=1.09D-05 DE=-7.55D-08 OVMax= 2.49D-05

 Cycle  11  Pass 1  IDiag  1:
 RMSU=  3.30D-07    CP:  1.00D+00  1.02D+00  9.05D-01
 E= -307.494417453911     Delta-E=       -0.000000000414 Rises=F Damp=F
 DIIS: error= 2.49D-06 at cycle   4 NSaved=   4.
 NSaved= 4 IEnMin= 4 EnMin= -307.494417453911     IErMin= 4 ErrMin= 2.49D-06
 ErrMax= 2.49D-06  0.00D+00 EMaxC= 1.00D-01 BMatC= 9.21D-10 BMatP= 1.33D-09
 IDIUse=1 WtCom= 1.00D+00 WtEn= 0.00D+00
 Coeff-Com: -0.643D-02 0.331D-01 0.498D+00 0.475D+00
 Coeff:     -0.643D-02 0.331D-01 0.498D+00 0.475D+00
 Gap=     0.216 Goal=   None    Shift=    0.000
 RMSDP=1.94D-07 MaxDP=6.85D-06 DE=-4.14D-10 OVMax= 1.17D-05

 Cycle  12  Pass 1  IDiag  1:
 RMSU=  5.10D-08    CP:  1.00D+00  1.02D+00  9.42D-01  4.91D-01
 E= -307.494417454850     Delta-E=       -0.000000000939 Rises=F Damp=F
 DIIS: error= 1.99D-07 at cycle   5 NSaved=   5.
 NSaved= 5 IEnMin= 5 EnMin= -307.494417454850     IErMin= 5 ErrMin= 1.99D-07
 ErrMax= 1.99D-07  0.00D+00 EMaxC= 1.00D-01 BMatC= 4.50D-12 BMatP= 9.21D-10
 IDIUse=1 WtCom= 1.00D+00 WtEn= 0.00D+00
 Coeff-Com: -0.444D-02 0.136D-01 0.220D+00 0.216D+00 0.555D+00
 Coeff:     -0.444D-02 0.136D-01 0.220D+00 0.216D+00 0.555D+00
 Gap=     0.216 Goal=   None    Shift=    0.000
 RMSDP=1.95D-08 MaxDP=4.48D-07 DE=-9.39D-10 OVMax= 1.02D-06

 Cycle  13  Pass 1  IDiag  1:
 RMSU=  1.49D-08    CP:  1.00D+00  1.02D+00  9.39D-01  5.14D-01  8.61D-01
 E= -307.494417454854     Delta-E=       -0.000000000004 Rises=F Damp=F
 DIIS: error= 8.69D-08 at cycle   6 NSaved=   6.
 NSaved= 6 IEnMin= 6 EnMin= -307.494417454854     IErMin= 6 ErrMin= 8.69D-08
 ErrMax= 8.69D-08  0.00D+00 EMaxC= 1.00D-01 BMatC= 1.17D-12 BMatP= 4.50D-12
 IDIUse=1 WtCom= 1.00D+00 WtEn= 0.00D+00
 Coeff-Com: -0.162D-02 0.320D-02 0.559D-01 0.566D-01 0.345D+00 0.541D+00
 Coeff:     -0.162D-02 0.320D-02 0.559D-01 0.566D-01 0.345D+00 0.541D+00
 Gap=     0.216 Goal=   None    Shift=    0.000
 RMSDP=6.31D-09 MaxDP=1.99D-07 DE=-3.98D-12 OVMax= 3.88D-07

 SCF Done:  E(RB3LYP) =  -307.494417455     A.U. after   13 cycles
            NFock= 13  Conv=0.63D-08     -V/T= 2.0051
 KE= 3.059315404566D+02 PE=-1.253918222899D+03 EE= 3.715467082003D+02
 Leave Link  502 at Mon Dec 17 12:44:43 2018, MaxMem=   268435456 cpu:             174.1 elap:              21.8
 (Enter /home/apps/g16avx/g16/l601.exe)
 Copying SCF densities to generalized density rwf, IOpCl= 0 IROHF=0.

 **********************************************************************

            Population analysis using the SCF density.

 **********************************************************************

 Orbital symmetries:
       Occupied  (A) (A) (A) (A) (A) (A) (A) (A) (A) (A) (A) (A)
                 (A) (A) (A) (A) (A) (A) (A) (A) (A) (A) (A) (A)
                 (A)
       Virtual   (A) (A) (A) (A) (A) (A) (A) (A) (A) (A) (A) (A)
                 (A) (A) (A) (A) (A) (A) (A) (A) (A) (A) (A) (A)
                 (A) (A) (A) (A) (A) (A) (A) (A) (A) (A) (A) (A)
                 (A) (A) (A) (A) (A) (A) (A) (A) (A) (A) (A) (A)
                 (A) (A) (A) (A) (A) (A) (A) (A) (A) (A) (A) (A)
                 (A) (A) (A) (A) (A) (A) (A) (A) (A) (A) (A) (A)
                 (A) (A) (A) (A) (A) (A) (A) (A) (A) (A) (A) (A)
                 (A) (A) (A) (A) (A) (A) (A) (A) (A) (A) (A) (A)
                 (A) (A) (A) (A) (A) (A) (A) (A) (A) (A) (A) (A)
                 (A) (A) (A) (A) (A) (A) (A) (A) (A) (A) (A) (A)
                 (A) (A) (A) (A) (A) (A) (A) (A) (A) (A) (A) (A)
                 (A) (A) (A) (A)
 The electronic state is 1-A.
 Alpha  occ. eigenvalues --  -19.18129 -10.25569 -10.19894 -10.19795 -10.19691
 Alpha  occ. eigenvalues --  -10.19358 -10.19012  -1.04852  -0.86198  -0.75820
 Alpha  occ. eigenvalues --   -0.74846  -0.62624  -0.60948  -0.54723  -0.50347
 Alpha  occ. eigenvalues --   -0.47039  -0.44716  -0.43167  -0.40733  -0.39558
 Alpha  occ. eigenvalues --   -0.36677  -0.34968  -0.34287  -0.26485  -0.23858
 Alpha virt. eigenvalues --   -0.02211  -0.00847   0.01347   0.02905   0.04375
 Alpha virt. eigenvalues --    0.05149   0.06833   0.07225   0.09551   0.09948
 Alpha virt. eigenvalues --    0.10463   0.10990   0.13680   0.14134   0.15094
 Alpha virt. eigenvalues --    0.15652   0.15682   0.16035   0.16657   0.17356
 Alpha virt. eigenvalues --    0.17864   0.19185   0.21384   0.21786   0.23214
 Alpha virt. eigenvalues --    0.24204   0.25512   0.26465   0.27122   0.28891
 Alpha virt. eigenvalues --    0.29056   0.34531   0.35187   0.35417   0.37037
 Alpha virt. eigenvalues --    0.43154   0.44402   0.51655   0.53183   0.53720
 Alpha virt. eigenvalues --    0.57884   0.59495   0.65529   0.68120   0.68499
 Alpha virt. eigenvalues --    0.69749   0.73027   0.74020   0.74916   0.76793
 Alpha virt. eigenvalues --    0.77015   0.77410   0.78901   0.82619   0.83637
 Alpha virt. eigenvalues --    0.85650   0.88972   0.89685   0.92296   0.93110
 Alpha virt. eigenvalues --    0.94530   0.95344   0.97334   0.98799   1.02018
 Alpha virt. eigenvalues --    1.06089   1.08769   1.10323   1.13943   1.15498
 Alpha virt. eigenvalues --    1.17409   1.20191   1.26376   1.27508   1.28051
 Alpha virt. eigenvalues --    1.28901   1.38703   1.42866   1.57141   1.58862
 Alpha virt. eigenvalues --    1.65734   1.66699   1.68610   1.72109   1.73878
 Alpha virt. eigenvalues --    1.74360   1.76211   1.77432   1.80265   1.81010
 Alpha virt. eigenvalues --    1.82854   1.83554   1.84585   1.88886   1.92077
 Alpha virt. eigenvalues --    1.93442   1.94618   2.04433   2.05816   2.08527
 Alpha virt. eigenvalues --    2.17024   2.21500   2.25868   2.26667   2.26780
 Alpha virt. eigenvalues --    2.29156   2.33599   2.34408   2.35660   2.35910
 Alpha virt. eigenvalues --    2.39314   2.51414   2.66552   2.67420   2.68988
 Alpha virt. eigenvalues --    2.70419   2.72346   2.76147   2.89055   2.89757
 Alpha virt. eigenvalues --    2.94317   2.95264   3.03705   3.05136   3.13235
 Alpha virt. eigenvalues --    3.30229   3.38003   3.61187   3.82814  45.36508
 Alpha virt. eigenvalues --   45.40384  45.42278  45.44325  45.44944  45.48621
 Alpha virt. eigenvalues --   94.30947
          Condensed to atoms (all electrons):
               1          2          3          4          5          6
     1  C    4.904852   0.560739  -0.071514  -0.093374  -0.079672   0.570180
     2  C    0.560739   5.012055   0.511993  -0.100676  -0.079177  -0.093560
     3  C   -0.071514   0.511993   4.872673   0.606755  -0.047726  -0.071962
     4  C   -0.093374  -0.100676   0.606755   4.639424   0.532813  -0.094364
     5  C   -0.079672  -0.079177  -0.047726   0.532813   5.003001   0.522665
     6  C    0.570180  -0.093560  -0.071962  -0.094364   0.522665   4.963096
     7  H    0.390609  -0.044949   0.003860   0.003063   0.007886  -0.034836
     8  H   -0.055625   0.389427  -0.025496   0.015466  -0.001496   0.002417
     9  H    0.013486  -0.025726   0.383728  -0.052103   0.004253  -0.001791
    10  H    0.021463  -0.001594  -0.004120  -0.079470   0.388568  -0.004686
    11  H   -0.052683   0.002976  -0.000393   0.012943  -0.024994   0.386439
    12  O    0.004578   0.014090  -0.063126   0.142597  -0.079881   0.009404
    13  H    0.000742  -0.002624   0.002523  -0.041196   0.003220   0.002782
               7          8          9         10         11         12
     1  C    0.390609  -0.055625   0.013486   0.021463  -0.052683   0.004578
     2  C   -0.044949   0.389427  -0.025726  -0.001594   0.002976   0.014090
     3  C    0.003860  -0.025496   0.383728  -0.004120  -0.000393  -0.063126
     4  C    0.003063   0.015466  -0.052103  -0.079470   0.012943   0.142597
     5  C    0.007886  -0.001496   0.004253   0.388568  -0.024994  -0.079881
     6  C   -0.034836   0.002417  -0.001791  -0.004686   0.386439   0.009404
     7  H    0.584332  -0.005566  -0.000122  -0.000131  -0.005623  -0.000060
     8  H   -0.005566   0.579937  -0.005762   0.000013  -0.000140  -0.000691
     9  H   -0.000122  -0.005762   0.572094  -0.000123   0.000013  -0.001635
    10  H   -0.000131   0.000013  -0.000123   0.603081  -0.005614  -0.010266
    11  H   -0.005623  -0.000140   0.000013  -0.005614   0.582548  -0.000993
    12  O   -0.000060  -0.000691  -0.001635  -0.010266  -0.000993   8.278593
    13  H    0.000000   0.000002  -0.000060   0.002671  -0.000002   0.361469
              13
     1  C    0.000742
     2  C   -0.002624
     3  C    0.002523
     4  C   -0.041196
     5  C    0.003220
     6  C    0.002782
     7  H    0.000000
     8  H    0.000002
     9  H   -0.000060
    10  H    0.002671
    11  H   -0.000002
    12  O    0.361469
    13  H    0.383850
 Mulliken charges:
               1
     1  C   -0.113780
     2  C   -0.142972
     3  C   -0.097195
     4  C    0.508121
     5  C   -0.149462
     6  C   -0.155786
     7  H    0.101538
     8  H    0.107515
     9  H    0.113748
    10  H    0.090207
    11  H    0.105523
    12  O   -0.654081
    13  H    0.286625
 Sum of Mulliken charges =   0.00000
 Mulliken charges with hydrogens summed into heavy atoms:
               1
     1  C   -0.012243
     2  C   -0.035457
     3  C    0.016552
     4  C    0.508121
     5  C   -0.059255
     6  C   -0.050263
    12  O   -0.367456
 Electronic spatial extent (au):  <R**2>=            678.5773
 Charge=              0.0000 electrons
 Dipole moment (field-independent basis, Debye):
    X=             -0.4622    Y=              1.2809    Z=              0.0000  Tot=              1.3617
 Quadrupole moment (field-independent basis, Debye-Ang):
   XX=            -39.0569   YY=            -35.9315   ZZ=            -45.6300
   XY=              4.4767   XZ=             -0.0029   YZ=             -0.0018
 Traceless Quadrupole moment (field-independent basis, Debye-Ang):
   XX=              1.1492   YY=              4.2747   ZZ=             -5.4239
   XY=              4.4767   XZ=             -0.0029   YZ=             -0.0018
 Octapole moment (field-independent basis, Debye-Ang**2):
  XXX=              5.2969  YYY=             -0.0421  ZZZ=              0.0021  XYY=              4.6816
  XXY=             13.0027  XXZ=             -0.0007  XZZ=              5.3292  YZZ=             -0.0973
  YYZ=              0.0041  XYZ=             -0.0015
 Hexadecapole moment (field-independent basis, Debye-Ang**3):
 XXXX=           -513.3056 YYYY=           -281.2884 ZZZZ=            -54.6824 XXXY=             39.1824
 XXXZ=             -0.0146 YYYX=              3.2390 YYYZ=             -0.0110 ZZZX=             -0.0001
 ZZZY=             -0.0021 XXYY=           -124.8713 XXZZ=           -110.8489 YYZZ=            -67.5977
 XXYZ=             -0.0041 YYXZ=             -0.0065 ZZXY=              0.5337
 N-N= 2.689455567873D+02 E-N=-1.253918224793D+03  KE= 3.059315404566D+02
 No NMR shielding tensors so no spin-rotation constants.
 Leave Link  601 at Mon Dec 17 12:44:43 2018, MaxMem=   268435456 cpu:               1.7 elap:               0.2
 (Enter /home/apps/g16avx/g16/l701.exe)
 ... and contract with generalized density number  0.
 Compute integral first derivatives.
 R6Disp: Adding Grimme-D3 dispersion energy 1st derivatives to the gradient.
 Leave Link  701 at Mon Dec 17 12:44:43 2018, MaxMem=   268435456 cpu:               2.0 elap:               0.3
 (Enter /home/apps/g16avx/g16/l702.exe)
 L702 exits ... SP integral derivatives will be done elsewhere.
 Leave Link  702 at Mon Dec 17 12:44:43 2018, MaxMem=   268435456 cpu:               0.2 elap:               0.0
 (Enter /home/apps/g16avx/g16/l703.exe)
 Integral derivatives from FoFJK, PRISM(SPDF).
 Compute integral first derivatives, UseDBF=F ICtDFT=           0.
 Calling FoFJK, ICntrl=      2127 FMM=F ISym2X=0 I1Cent= 0 IOpClX= 0 NMat=1 NMatS=1 NMatT=0.
 FoFJK:  IHMeth= 1 ICntrl=    2127 DoSepK=F KAlg= 0 I1Cent=           0 FoldK=F
 IRaf=         0 NMat=       1 IRICut=       1 DoRegI=T DoRafI=F ISym2E= 0 IDoP0=0 IntGTp=1.
 FoFCou: FMM=F IPFlag=           0 FMFlag=      100000 FMFlg1=         800
         NFxFlg=           0 DoJE=F BraDBF=F KetDBF=F FulRan=T
         wScrn=  0.000000 ICntrl=      2127 IOpCl=  0 I1Cent=           0 NGrid=           0
         NMat0=    1 NMatS0=      1 NMatT0=    0 NMatD0=    1 NMtDS0=    0 NMtDT0=    0
 Symmetry not used in FoFCou.
 Leave Link  703 at Mon Dec 17 12:44:49 2018, MaxMem=   268435456 cpu:              44.5 elap:               5.6
 (Enter /home/apps/g16avx/g16/l716.exe)
 Dipole        =-1.81854772D-01 5.03932112D-01 7.22199420D-06
 ***** Axes restored to original set *****
 -------------------------------------------------------------------
 Center     Atomic                   Forces (Hartrees/Bohr)
 Number     Number              X              Y              Z
 -------------------------------------------------------------------
      1        6          -0.007581580   -0.012978115   -0.000089136
      2        6           0.000877859   -0.004419287    0.003132150
      3        6           0.015360416    0.005148954    0.010633253
      4        6           0.011160277    0.031648917   -0.006110735
      5        6          -0.005331543    0.006553874   -0.007868980
      6        6          -0.006445347   -0.001398040   -0.004953591
      7        1           0.004088789    0.007273118   -0.000096424
      8        1          -0.001604342    0.007034859   -0.004962574
      9        1          -0.006479624    0.001028049   -0.006124242
     10        1           0.002238786   -0.005188805    0.004546232
     11        1           0.006681422    0.001742482    0.004911835
     12        8          -0.009434949   -0.036963912    0.010295098
     13        1          -0.003530165    0.000517905   -0.003312887
 -------------------------------------------------------------------
 Cartesian Forces:  Max     0.036963912 RMS     0.010041898
 Leave Link  716 at Mon Dec 17 12:44:49 2018, MaxMem=   268435456 cpu:               0.5 elap:               0.1
 (Enter /home/apps/g16avx/g16/l103.exe)

 GradGradGradGradGradGradGradGradGradGradGradGradGradGradGradGradGradGrad
 Berny optimization.
 FormGI is forming the generalized inverse of G from B-inverse, IUseBI=4.
 Internal  Forces:  Max     0.038043657 RMS     0.006162228
 Search for a local minimum.
 Step number   1 out of a maximum of   68
 All quantities printed in internal units (Hartrees-Bohrs-Radians)
 RMS Force = .61622D-02 SwitMx=.10000D-02 MixMth= 1
 Mixed Optimization -- RFO/linear search
 Second derivative matrix not updated -- first step.
 ITU=  0
     Eigenvalues ---    0.01295   0.01997   0.02152   0.02154   0.02154
     Eigenvalues ---    0.02155   0.02155   0.02155   0.02156   0.02157
     Eigenvalues ---    0.16000   0.16000   0.16000   0.16000   0.16000
     Eigenvalues ---    0.16000   0.22000   0.22000   0.23486   0.25000
     Eigenvalues ---    0.33709   0.33718   0.33720   0.33725   0.33726
     Eigenvalues ---    0.40989   0.42121   0.42300   0.46412   0.46453
     Eigenvalues ---    0.46466   0.46497   0.55473
 RFO step:  Lambda=-6.06730237D-03 EMin= 1.29493786D-02
 Linear search not attempted -- first point.
 Iteration  1 RMS(Cart)=  0.02660578 RMS(Int)=  0.00039975
 Iteration  2 RMS(Cart)=  0.00057797 RMS(Int)=  0.00000411
 Iteration  3 RMS(Cart)=  0.00000046 RMS(Int)=  0.00000409
 ITry= 1 IFail=0 DXMaxC= 1.11D-01 DCOld= 1.00D+10 DXMaxT= 3.00D-01 DXLimC= 3.00D+00 Rises=F
 Variable       Old X    -DE/DX   Delta X   Delta X   Delta X     New X
                                 (Linear)    (Quad)   (Total)
    R1        2.63647   0.00395   0.00000   0.00846   0.00845   2.64492
    R2        2.63584   0.00293   0.00000   0.00646   0.00646   2.64230
    R3        2.07796  -0.00834   0.00000  -0.02430  -0.02430   2.05366
    R4        2.63562   0.00224   0.00000   0.00458   0.00457   2.64020
    R5        2.07805  -0.00869   0.00000  -0.02531  -0.02531   2.05273
    R6        2.63697  -0.00238   0.00000  -0.00530  -0.00530   2.63168
    R7        2.07809  -0.00868   0.00000  -0.02528  -0.02528   2.05282
    R8        2.63584   0.00369   0.00000   0.00777   0.00777   2.64361
    R9        2.70231  -0.03804   0.00000  -0.09146  -0.09146   2.61085
   R10        2.63643   0.00213   0.00000   0.00470   0.00471   2.64114
   R11        2.07825  -0.00725   0.00000  -0.02112  -0.02112   2.05713
   R12        2.07795  -0.00844   0.00000  -0.02459  -0.02459   2.05336
   R13        1.81414   0.00398   0.00000   0.00710   0.00710   1.82123
    A1        2.09437  -0.00219   0.00000  -0.00869  -0.00870   2.08567
    A2        2.09435   0.00123   0.00000   0.00518   0.00519   2.09953
    A3        2.09447   0.00096   0.00000   0.00351   0.00352   2.09799
    A4        2.09455   0.00287   0.00000   0.01282   0.01281   2.10736
    A5        2.09406  -0.00030   0.00000   0.00042   0.00042   2.09448
    A6        2.09458  -0.00257   0.00000  -0.01324  -0.01323   2.08135
    A7        2.09429  -0.00326   0.00000  -0.01497  -0.01497   2.07932
    A8        2.09462   0.00402   0.00000   0.02187   0.02187   2.11649
    A9        2.09427  -0.00076   0.00000  -0.00690  -0.00690   2.08738
   A10        2.09429   0.00403   0.00000   0.01549   0.01549   2.10978
   A11        2.09407  -0.01283   0.00000  -0.04999  -0.04999   2.04407
   A12        2.09483   0.00880   0.00000   0.03450   0.03450   2.12933
   A13        2.09448  -0.00205   0.00000  -0.00851  -0.00851   2.08597
   A14        2.09459   0.00073   0.00000   0.00248   0.00247   2.09707
   A15        2.09411   0.00132   0.00000   0.00604   0.00603   2.10015
   A16        2.09440   0.00060   0.00000   0.00387   0.00387   2.09827
   A17        2.09453   0.00045   0.00000   0.00260   0.00260   2.09714
   A18        2.09426  -0.00105   0.00000  -0.00647  -0.00647   2.08778
   A19        1.91114  -0.00509   0.00000  -0.03067  -0.03067   1.88047
    D1        0.00056  -0.00002   0.00000  -0.00057  -0.00057  -0.00001
    D2        3.14078   0.00002   0.00000   0.00072   0.00072   3.14150
    D3       -3.14112  -0.00001   0.00000  -0.00056  -0.00056   3.14151
    D4       -0.00091   0.00002   0.00000   0.00073   0.00073  -0.00018
    D5        0.00026  -0.00001   0.00000  -0.00032  -0.00032  -0.00006
    D6        3.14140   0.00001   0.00000   0.00020   0.00020  -3.14158
    D7       -3.14124  -0.00001   0.00000  -0.00033  -0.00033  -3.14157
    D8       -0.00010   0.00001   0.00000   0.00019   0.00019   0.00009
    D9       -0.00099   0.00003   0.00000   0.00104   0.00104   0.00005
   D10        3.14093   0.00002   0.00000   0.00070   0.00070  -3.14156
   D11       -3.14120  -0.00001   0.00000  -0.00025  -0.00025  -3.14146
   D12        0.00072  -0.00002   0.00000  -0.00059  -0.00059   0.00012
   D13        0.00060  -0.00002   0.00000  -0.00062  -0.00062  -0.00002
   D14       -3.14153   0.00000   0.00000  -0.00009  -0.00009   3.14156
   D15       -3.14132  -0.00001   0.00000  -0.00028  -0.00028   3.14158
   D16       -0.00026   0.00001   0.00000   0.00025   0.00024  -0.00002
   D17        0.00023  -0.00001   0.00000  -0.00028  -0.00027  -0.00004
   D18       -3.14158   0.00000   0.00000   0.00009   0.00010  -3.14149
   D19       -3.14083  -0.00002   0.00000  -0.00079  -0.00079   3.14156
   D20        0.00054  -0.00001   0.00000  -0.00042  -0.00042   0.00012
   D21        3.14159  -0.00001   0.00000  -0.00018  -0.00018   3.14141
   D22       -0.00053   0.00001   0.00000   0.00035   0.00035  -0.00019
   D23       -0.00066   0.00002   0.00000   0.00074   0.00074   0.00009
   D24        3.14138   0.00001   0.00000   0.00022   0.00022  -3.14158
   D25        3.14116   0.00001   0.00000   0.00037   0.00037   3.14153
   D26        0.00001   0.00000   0.00000  -0.00015  -0.00015  -0.00014
         Item               Value     Threshold  Converged?
 Maximum Force            0.038044     0.000450     NO 
 RMS     Force            0.006162     0.000300     NO 
 Maximum Displacement     0.110650     0.001800     NO 
 RMS     Displacement     0.026460     0.001200     NO 
 Predicted change in Energy=-3.087776D-03
 Lowest energy point so far.  Saving SCF results.
 GradGradGradGradGradGradGradGradGradGradGradGradGradGradGradGradGradGrad

 Leave Link  103 at Mon Dec 17 12:44:49 2018, MaxMem=   268435456 cpu:               0.2 elap:               0.0
 (Enter /home/apps/g16avx/g16/l202.exe)
                          Input orientation:                          
 ---------------------------------------------------------------------
 Center     Atomic      Atomic             Coordinates (Angstroms)
 Number     Number       Type             X           Y           Z
 ---------------------------------------------------------------------
      1          6           0       -2.564461   -0.551945   -0.001732
      2          6           0       -1.469906   -0.360977    0.849414
      3          6           0       -0.768800    0.847504    0.851090
      4          6           0       -1.172326    1.866705   -0.007860
      5          6           0       -2.264054    1.693047   -0.865182
      6          6           0       -2.958408    0.480118   -0.858906
      7          1           0       -3.104544   -1.494981    0.002920
      8          1           0       -1.156850   -1.157196    1.518736
      9          1           0        0.081884    1.004880    1.508074
     10          1           0       -2.569206    2.497697   -1.531843
     11          1           0       -3.806627    0.343405   -1.524124
     12          8           0       -0.449698    3.043705    0.028237
     13          1           0       -0.840660    3.648149   -0.612559
 ---------------------------------------------------------------------
                    Distance matrix (angstroms):
                    1          2          3          4          5
     1  C    0.000000
     2  C    1.399632   0.000000
     3  C    2.431083   1.397132   0.000000
     4  C    2.790690   2.405419   1.392623   0.000000
     5  C    2.424001   2.790972   2.428233   1.398938   0.000000
     6  C    1.398247   2.416906   2.802399   2.415987   1.397629
     7  H    1.086751   2.162073   3.415015   3.877437   3.409332
     8  H    2.158592   1.086261   2.148292   3.387435   3.877222
     9  H    3.421456   2.169666   1.086305   2.147986   3.407249
    10  H    3.411977   3.879544   3.412179   2.161469   1.088585
    11  H    2.159237   3.404424   3.888978   3.399859   2.152968
    12  O    4.171549   3.647878   2.366899   1.381602   2.431946
    13  H    4.580982   4.313514   3.160861   1.910289   2.431521
                    6          7          8          9         10
     6  C    0.000000
     7  H    2.159887   0.000000
     8  H    3.402880   2.491046   0.000000
     9  H    3.888618   4.320661   2.491816   0.000000
    10  H    2.162164   4.310866   4.965786   4.300916   0.000000
    11  H    1.086591   2.490872   4.304895   4.975167   2.484401
    12  O    3.694947   5.258186   4.513228   2.574744   2.687803
    13  H    3.818634   5.652943   5.266283   3.512128   2.270791
                   11         12         13
    11  H    0.000000
    12  O    4.579347   0.000000
    13  H    4.533128   0.963755   0.000000
 Stoichiometry    C6H6O
 Framework group  C1[X(C6H6O)]
 Deg. of freedom    33
 Full point group                 C1      NOp   1
 RotChk:  IX=2 Diff= 3.14D-02
 Largest Abelian subgroup         C1      NOp   1
 Largest concise Abelian subgroup C1      NOp   1
                         Standard orientation:                         
 ---------------------------------------------------------------------
 Center     Atomic      Atomic             Coordinates (Angstroms)
 Number     Number       Type             X           Y           Z
 ---------------------------------------------------------------------
      1          6           0       -1.856944    0.025404    0.000004
      2          6           0       -1.169814   -1.193949    0.000002
      3          6           0        0.226936   -1.226637   -0.000025
      4          6           0        0.933264   -0.026429    0.000006
      5          6           0        0.262720    1.201332    0.000036
      6          6           0       -1.134745    1.222703   -0.000016
      7          1           0       -2.943563    0.042326   -0.000056
      8          1           0       -1.722651   -2.129006    0.000108
      9          1           0        0.768859   -2.168114   -0.000057
     10          1           0        0.826729    2.132413   -0.000040
     11          1           0       -1.657300    2.175392   -0.000004
     12          8           0        2.312491   -0.107409    0.000017
     13          1           0        2.659489    0.791710   -0.000125
 ---------------------------------------------------------------------
 Rotational constants (GHZ):           5.6239414           2.6105997           1.7829603
 Leave Link  202 at Mon Dec 17 12:44:49 2018, MaxMem=   268435456 cpu:               0.0 elap:               0.0
 (Enter /home/apps/g16avx/g16/l301.exe)
 Basis read from rwf:  (5D, 7F)
 No pseudopotential information found on rwf file.
 There are   169 symmetry adapted cartesian basis functions of A   symmetry.
 There are   161 symmetry adapted basis functions of A   symmetry.
   161 basis functions,   272 primitive gaussians,   169 cartesian basis functions
    25 alpha electrons       25 beta electrons
       nuclear repulsion energy       270.4504472746 Hartrees.
 IExCor=  402 DFT=T Ex+Corr=B3LYP ExCW=0 ScaHFX=  0.200000
 ScaDFX=  0.800000  0.720000  1.000000  0.810000 ScalE2=  1.000000  1.000000
 IRadAn=      5 IRanWt=     -1 IRanGd=            0 ICorTp=0 IEmpDi=131
 NAtoms=   13 NActive=   13 NUniq=   13 SFac= 1.00D+00 NAtFMM=   60 NAOKFM=F Big=F
 Integral buffers will be    131072 words long.
 Raffenetti 2 integral format.
 Two-electron integral symmetry is turned on.
 R6Disp:  Grimme-D3 Dispersion energy=       -0.0065491651 Hartrees.
 Nuclear repulsion after empirical dispersion term =      270.4438981095 Hartrees.
 No density basis found on file   724.
 Leave Link  301 at Mon Dec 17 12:44:49 2018, MaxMem=   268435456 cpu:               0.9 elap:               0.1
 (Enter /home/apps/g16avx/g16/l302.exe)
 NPDir=0 NMtPBC=     1 NCelOv=     1 NCel=       1 NClECP=     1 NCelD=      1
         NCelK=      1 NCelE2=     1 NClLst=     1 CellRange=     0.0.
 One-electron integrals computed using PRISM.
 One-electron integral symmetry used in STVInt
 NBasis=   161 RedAO= T EigKep=  2.60D-05  NBF=   161
 NBsUse=   161 1.00D-06 EigRej= -1.00D+00 NBFU=   161
 Precomputing XC quadrature grid using
 IXCGrd= 4 IRadAn=           5 IRanWt=          -1 IRanGd=           0 AccXCQ= 0.00D+00.
 Generated NRdTot=       0 NPtTot=           0 NUsed=           0 NTot=          32
 NSgBfM=   168   168   168   168   168 MxSgAt=    13 MxSgA2=    13.
 Leave Link  302 at Mon Dec 17 12:44:50 2018, MaxMem=   268435456 cpu:               3.0 elap:               0.4
 (Enter /home/apps/g16avx/g16/l303.exe)
 DipDrv:  MaxL=1.
 Leave Link  303 at Mon Dec 17 12:44:50 2018, MaxMem=   268435456 cpu:               0.5 elap:               0.1
 (Enter /home/apps/g16avx/g16/l401.exe)
 Initial guess from the checkpoint file:  "fenol_b3lypd3_n07d_gas_of.chk"
 B after Tr=     0.000000    0.000000    0.000000
         Rot=    0.999956   -0.000001    0.000000   -0.009411 Ang=  -1.08 deg.
 Guess basis will be translated and rotated to current coordinates.
 JPrj=2 DoOrth=T DoCkMO=T.
 Generating alternative initial guess.
 ExpMin= 5.00D-02 ExpMax= 5.48D+03 ExpMxC= 8.25D+02 IAcc=2 IRadAn=         4 AccDes= 0.00D+00
 Harris functional with IExCor=  402 and IRadAn=       4 diagonalized for initial guess.
 HarFok:  IExCor=  402 AccDes= 0.00D+00 IRadAn=         4 IDoV= 1 UseB2=F ITyADJ=14
 ICtDFT=  3500011 ScaDFX=  1.000000  1.000000  1.000000  1.000000
 FoFCou: FMM=F IPFlag=           0 FMFlag=      100000 FMFlg1=           0
         NFxFlg=           0 DoJE=T BraDBF=F KetDBF=T FulRan=T
         wScrn=  0.000000 ICntrl=       500 IOpCl=  0 I1Cent=   200000004 NGrid=           0
         NMat0=    1 NMatS0=      1 NMatT0=    0 NMatD0=    1 NMtDS0=    0 NMtDT0=    0
 Petite list used in FoFCou.
 Harris En= -307.513703835096    
 Leave Link  401 at Mon Dec 17 12:44:51 2018, MaxMem=   268435456 cpu:               8.0 elap:               1.0
 (Enter /home/apps/g16avx/g16/l502.exe)
 Integral symmetry usage will be decided dynamically.
 Closed shell SCF:
 Using DIIS extrapolation, IDIIS=  1040.
 NGot=   268435456 LenX=   268375197 LenY=   268346195
 Requested convergence on RMS density matrix=1.00D-08 within 128 cycles.
 Requested convergence on MAX density matrix=1.00D-06.
 Requested convergence on             energy=1.00D-06.
 No special actions if energy rises.
 Fock matrices will be formed incrementally for  20 cycles.
 Integral accuracy reduced to 1.0D-05 until final iterations.

 Cycle   1  Pass 0  IDiag  1:
 FoFJK:  IHMeth= 1 ICntrl=       0 DoSepK=F KAlg= 0 I1Cent=           0 FoldK=F
 IRaf= 960000000 NMat=       1 IRICut=       1 DoRegI=T DoRafI=F ISym2E= 0 IDoP0=0 IntGTp=1.
 FoFCou: FMM=F IPFlag=           0 FMFlag=      100000 FMFlg1=           0
         NFxFlg=           0 DoJE=F BraDBF=F KetDBF=F FulRan=T
         wScrn=  0.000000 ICntrl=         0 IOpCl=  0 I1Cent=           0 NGrid=           0
         NMat0=    1 NMatS0=      1 NMatT0=    0 NMatD0=    1 NMtDS0=    0 NMtDT0=    0
 Symmetry not used in FoFCou.
 E= -307.496207556973    
 DIIS: error= 2.06D-03 at cycle   1 NSaved=   1.
 NSaved= 1 IEnMin= 1 EnMin= -307.496207556973     IErMin= 1 ErrMin= 2.06D-03
 ErrMax= 2.06D-03  0.00D+00 EMaxC= 1.00D-01 BMatC= 1.52D-03 BMatP= 1.52D-03
 IDIUse=3 WtCom= 9.79D-01 WtEn= 2.06D-02
 Coeff-Com:  0.100D+01
 Coeff-En:   0.100D+01
 Coeff:      0.100D+01
 Gap=     0.592 Goal=   None    Shift=    0.000
 GapD=    0.592 DampG=2.000 DampE=1.000 DampFc=2.0000 IDamp=-1.
 RMSDP=5.85D-04 MaxDP=9.05D-03              OVMax= 1.19D-02

 Cycle   2  Pass 0  IDiag  1:
 RMSU=  5.84D-04    CP:  1.00D+00
 E= -307.497672264005     Delta-E=       -0.001464707032 Rises=F Damp=F
 DIIS: error= 6.18D-04 at cycle   2 NSaved=   2.
 NSaved= 2 IEnMin= 2 EnMin= -307.497672264005     IErMin= 2 ErrMin= 6.18D-04
 ErrMax= 6.18D-04  0.00D+00 EMaxC= 1.00D-01 BMatC= 4.89D-05 BMatP= 1.52D-03
 IDIUse=3 WtCom= 9.94D-01 WtEn= 6.18D-03
 Coeff-Com:  0.436D-01 0.956D+00
 Coeff-En:   0.000D+00 0.100D+01
 Coeff:      0.433D-01 0.957D+00
 Gap=     0.213 Goal=   None    Shift=    0.000
 RMSDP=8.35D-05 MaxDP=1.80D-03 DE=-1.46D-03 OVMax= 4.14D-03

 Cycle   3  Pass 0  IDiag  1:
 RMSU=  8.31D-05    CP:  1.00D+00  1.00D+00
 E= -307.497677749047     Delta-E=       -0.000005485043 Rises=F Damp=F
 DIIS: error= 3.70D-04 at cycle   3 NSaved=   3.
 NSaved= 3 IEnMin= 3 EnMin= -307.497677749047     IErMin= 3 ErrMin= 3.70D-04
 ErrMax= 3.70D-04  0.00D+00 EMaxC= 1.00D-01 BMatC= 3.89D-05 BMatP= 4.89D-05
 IDIUse=3 WtCom= 9.96D-01 WtEn= 3.70D-03
 Coeff-Com: -0.586D-02 0.468D+00 0.538D+00
 Coeff-En:   0.000D+00 0.464D+00 0.536D+00
 Coeff:     -0.584D-02 0.468D+00 0.538D+00
 Gap=     0.213 Goal=   None    Shift=    0.000
 RMSDP=5.38D-05 MaxDP=1.41D-03 DE=-5.49D-06 OVMax= 3.87D-03

 Cycle   4  Pass 0  IDiag  1:
 RMSU=  3.69D-05    CP:  1.00D+00  1.02D+00  5.47D-01
 E= -307.497710354775     Delta-E=       -0.000032605728 Rises=F Damp=F
 DIIS: error= 2.07D-04 at cycle   4 NSaved=   4.
 NSaved= 4 IEnMin= 4 EnMin= -307.497710354775     IErMin= 4 ErrMin= 2.07D-04
 ErrMax= 2.07D-04  0.00D+00 EMaxC= 1.00D-01 BMatC= 7.80D-06 BMatP= 3.89D-05
 IDIUse=3 WtCom= 9.98D-01 WtEn= 2.07D-03
 Coeff-Com: -0.773D-02 0.167D+00 0.336D+00 0.504D+00
 Coeff-En:   0.000D+00 0.000D+00 0.193D+00 0.807D+00
 Coeff:     -0.771D-02 0.167D+00 0.336D+00 0.504D+00
 Gap=     0.213 Goal=   None    Shift=    0.000
 RMSDP=2.00D-05 MaxDP=4.96D-04 DE=-3.26D-05 OVMax= 1.51D-03

 Cycle   5  Pass 0  IDiag  1:
 RMSU=  8.47D-06    CP:  1.00D+00  1.02D+00  6.64D-01  5.87D-01
 E= -307.497719265717     Delta-E=       -0.000008910942 Rises=F Damp=F
 DIIS: error= 3.54D-05 at cycle   5 NSaved=   5.
 NSaved= 5 IEnMin= 5 EnMin= -307.497719265717     IErMin= 5 ErrMin= 3.54D-05
 ErrMax= 3.54D-05  0.00D+00 EMaxC= 1.00D-01 BMatC= 2.35D-07 BMatP= 7.80D-06
 IDIUse=1 WtCom= 1.00D+00 WtEn= 0.00D+00
 Coeff-Com: -0.309D-02 0.558D-01 0.136D+00 0.246D+00 0.565D+00
 Coeff:     -0.309D-02 0.558D-01 0.136D+00 0.246D+00 0.565D+00
 Gap=     0.213 Goal=   None    Shift=    0.000
 RMSDP=4.09D-06 MaxDP=1.09D-04 DE=-8.91D-06 OVMax= 2.57D-04

 Initial convergence to 1.0D-05 achieved.  Increase integral accuracy.
 Cycle   6  Pass 1  IDiag  1:
 E= -307.497711160157     Delta-E=        0.000008105560 Rises=F Damp=F
 DIIS: error= 1.37D-05 at cycle   1 NSaved=   1.
 NSaved= 1 IEnMin= 1 EnMin= -307.497711160157     IErMin= 1 ErrMin= 1.37D-05
 ErrMax= 1.37D-05  0.00D+00 EMaxC= 1.00D-01 BMatC= 4.13D-08 BMatP= 4.13D-08
 IDIUse=1 WtCom= 1.00D+00 WtEn= 0.00D+00
 Coeff-Com:  0.100D+01
 Coeff:      0.100D+01
 Gap=     0.213 Goal=   None    Shift=    0.000
 RMSDP=4.09D-06 MaxDP=1.09D-04 DE= 8.11D-06 OVMax= 1.53D-04

 Cycle   7  Pass 1  IDiag  1:
 RMSU=  1.72D-05    CP:  1.00D+00
 E= -307.497711117855     Delta-E=        0.000000042302 Rises=F Damp=F
 DIIS: error= 2.20D-05 at cycle   2 NSaved=   2.
 NSaved= 2 IEnMin= 1 EnMin= -307.497711160157     IErMin= 1 ErrMin= 1.37D-05
 ErrMax= 2.20D-05  0.00D+00 EMaxC= 1.00D-01 BMatC= 8.27D-08 BMatP= 4.13D-08
 IDIUse=1 WtCom= 1.00D+00 WtEn= 0.00D+00
 Coeff-Com:  0.591D+00 0.409D+00
 Coeff:      0.591D+00 0.409D+00
 Gap=     0.213 Goal=   None    Shift=    0.000
 RMSDP=1.86D-06 MaxDP=5.84D-05 DE= 4.23D-08 OVMax= 1.17D-04

 Cycle   8  Pass 1  IDiag  1:
 RMSU=  1.84D-06    CP:  1.00D+00  9.86D-01
 E= -307.497711201763     Delta-E=       -0.000000083908 Rises=F Damp=F
 DIIS: error= 3.12D-06 at cycle   3 NSaved=   3.
 NSaved= 3 IEnMin= 3 EnMin= -307.497711201763     IErMin= 3 ErrMin= 3.12D-06
 ErrMax= 3.12D-06  0.00D+00 EMaxC= 1.00D-01 BMatC= 1.91D-09 BMatP= 4.13D-08
 IDIUse=1 WtCom= 1.00D+00 WtEn= 0.00D+00
 Coeff-Com:  0.170D+00 0.178D+00 0.652D+00
 Coeff:      0.170D+00 0.178D+00 0.652D+00
 Gap=     0.213 Goal=   None    Shift=    0.000
 RMSDP=4.69D-07 MaxDP=8.67D-06 DE=-8.39D-08 OVMax= 2.74D-05

 Cycle   9  Pass 1  IDiag  1:
 RMSU=  3.39D-07    CP:  1.00D+00  1.00D+00  9.04D-01
 E= -307.497711203160     Delta-E=       -0.000000001397 Rises=F Damp=F
 DIIS: error= 1.51D-06 at cycle   4 NSaved=   4.
 NSaved= 4 IEnMin= 4 EnMin= -307.497711203160     IErMin= 4 ErrMin= 1.51D-06
 ErrMax= 1.51D-06  0.00D+00 EMaxC= 1.00D-01 BMatC= 6.39D-10 BMatP= 1.91D-09
 IDIUse=1 WtCom= 1.00D+00 WtEn= 0.00D+00
 Coeff-Com:  0.838D-02 0.492D-01 0.415D+00 0.527D+00
 Coeff:      0.838D-02 0.492D-01 0.415D+00 0.527D+00
 Gap=     0.213 Goal=   None    Shift=    0.000
 RMSDP=1.94D-07 MaxDP=4.38D-06 DE=-1.40D-09 OVMax= 1.11D-05

 Cycle  10  Pass 1  IDiag  1:
 RMSU=  7.47D-08    CP:  1.00D+00  1.01D+00  9.29D-01  5.71D-01
 E= -307.497711203822     Delta-E=       -0.000000000662 Rises=F Damp=F
 DIIS: error= 2.40D-07 at cycle   5 NSaved=   5.
 NSaved= 5 IEnMin= 5 EnMin= -307.497711203822     IErMin= 5 ErrMin= 2.40D-07
 ErrMax= 2.40D-07  0.00D+00 EMaxC= 1.00D-01 BMatC= 1.22D-11 BMatP= 6.39D-10
 IDIUse=1 WtCom= 1.00D+00 WtEn= 0.00D+00
 Coeff-Com: -0.584D-02 0.121D-01 0.135D+00 0.215D+00 0.644D+00
 Coeff:     -0.584D-02 0.121D-01 0.135D+00 0.215D+00 0.644D+00
 Gap=     0.213 Goal=   None    Shift=    0.000
 RMSDP=3.17D-08 MaxDP=7.92D-07 DE=-6.62D-10 OVMax= 1.62D-06

 Cycle  11  Pass 1  IDiag  1:
 RMSU=  2.59D-08    CP:  1.00D+00  1.01D+00  9.25D-01  5.89D-01  8.63D-01
 E= -307.497711203833     Delta-E=       -0.000000000011 Rises=F Damp=F
 DIIS: error= 7.78D-08 at cycle   6 NSaved=   6.
 NSaved= 6 IEnMin= 6 EnMin= -307.497711203833     IErMin= 6 ErrMin= 7.78D-08
 ErrMax= 7.78D-08  0.00D+00 EMaxC= 1.00D-01 BMatC= 1.86D-12 BMatP= 1.22D-11
 IDIUse=1 WtCom= 1.00D+00 WtEn= 0.00D+00
 Coeff-Com: -0.385D-02 0.447D-02 0.540D-01 0.932D-01 0.360D+00 0.492D+00
 Coeff:     -0.385D-02 0.447D-02 0.540D-01 0.932D-01 0.360D+00 0.492D+00
 Gap=     0.213 Goal=   None    Shift=    0.000
 RMSDP=8.96D-09 MaxDP=2.49D-07 DE=-1.06D-11 OVMax= 4.95D-07

 SCF Done:  E(RB3LYP) =  -307.497711204     A.U. after   11 cycles
            NFock= 11  Conv=0.90D-08     -V/T= 2.0046
 KE= 3.060813345108D+02 PE=-1.257030075022D+03 EE= 3.730071311980D+02
 Leave Link  502 at Mon Dec 17 12:45:11 2018, MaxMem=   268435456 cpu:             158.6 elap:              19.8
 (Enter /home/apps/g16avx/g16/l701.exe)
 ... and contract with generalized density number  0.
 Compute integral first derivatives.
 R6Disp: Adding Grimme-D3 dispersion energy 1st derivatives to the gradient.
 Leave Link  701 at Mon Dec 17 12:45:11 2018, MaxMem=   268435456 cpu:               2.4 elap:               0.3
 (Enter /home/apps/g16avx/g16/l702.exe)
 L702 exits ... SP integral derivatives will be done elsewhere.
 Leave Link  702 at Mon Dec 17 12:45:11 2018, MaxMem=   268435456 cpu:               0.5 elap:               0.1
 (Enter /home/apps/g16avx/g16/l703.exe)
 Integral derivatives from FoFJK, PRISM(SPDF).
 Compute integral first derivatives, UseDBF=F ICtDFT=           0.
 Calling FoFJK, ICntrl=      2127 FMM=F ISym2X=0 I1Cent= 0 IOpClX= 0 NMat=1 NMatS=1 NMatT=0.
 FoFJK:  IHMeth= 1 ICntrl=    2127 DoSepK=F KAlg= 0 I1Cent=           0 FoldK=F
 IRaf=         0 NMat=       1 IRICut=       1 DoRegI=T DoRafI=F ISym2E= 0 IDoP0=0 IntGTp=1.
 FoFCou: FMM=F IPFlag=           0 FMFlag=      100000 FMFlg1=         800
         NFxFlg=           0 DoJE=F BraDBF=F KetDBF=F FulRan=T
         wScrn=  0.000000 ICntrl=      2127 IOpCl=  0 I1Cent=           0 NGrid=           0
         NMat0=    1 NMatS0=      1 NMatT0=    0 NMatD0=    1 NMtDS0=    0 NMtDT0=    0
 Symmetry not used in FoFCou.
 Leave Link  703 at Mon Dec 17 12:45:17 2018, MaxMem=   268435456 cpu:              43.3 elap:               5.4
 (Enter /home/apps/g16avx/g16/l716.exe)
 Dipole        =-7.16267410D-02 5.04902279D-01-1.03738267D-04
 ***** Axes restored to original set *****
 -------------------------------------------------------------------
 Center     Atomic                   Forces (Hartrees/Bohr)
 Number     Number              X              Y              Z
 -------------------------------------------------------------------
      1        6          -0.000456064   -0.000808488    0.000002357
      2        6           0.000063144    0.000706809   -0.000290973
      3        6          -0.000348172   -0.005601252    0.002506024
      4        6           0.005110638    0.010589338   -0.000878274
      5        6          -0.001175175   -0.001244463   -0.000408239
      6        6           0.000950986   -0.000295094    0.000979223
      7        1           0.000164466    0.000177638    0.000058426
      8        1           0.000050710   -0.000513547    0.000292797
      9        1          -0.000180418    0.000750416   -0.000529653
     10        1           0.000147690    0.000240872    0.000013559
     11        1          -0.000152232    0.000175550   -0.000222501
     12        8          -0.006004825   -0.007123389   -0.001632628
     13        1           0.001829251    0.002945610    0.000109880
 -------------------------------------------------------------------
 Cartesian Forces:  Max     0.010589338 RMS     0.002709294
 Leave Link  716 at Mon Dec 17 12:45:17 2018, MaxMem=   268435456 cpu:               0.4 elap:               0.1
 (Enter /home/apps/g16avx/g16/l103.exe)

 GradGradGradGradGradGradGradGradGradGradGradGradGradGradGradGradGradGrad
 Berny optimization.
 Using GEDIIS/GDIIS optimizer.
 FormGI is forming the generalized inverse of G from B-inverse, IUseBI=4.
 Internal  Forces:  Max     0.006031373 RMS     0.001378324
 Search for a local minimum.
 Step number   2 out of a maximum of   68
 All quantities printed in internal units (Hartrees-Bohrs-Radians)
 RMS Force = .13783D-02 SwitMx=.10000D-02 MixMth= 1
 Mixed Optimization -- RFO/linear search
 Update second derivatives using D2CorX and points    1    2
 DE= -3.29D-03 DEPred=-3.09D-03 R= 1.07D+00
 TightC=F SS=  1.41D+00  RLast= 1.34D-01 DXNew= 5.0454D-01 4.0070D-01
 Trust test= 1.07D+00 RLast= 1.34D-01 DXMaxT set to 4.01D-01
 ITU=  1  0
 Use linear search instead of GDIIS.
     Eigenvalues ---    0.01295   0.02000   0.02152   0.02154   0.02155
     Eigenvalues ---    0.02155   0.02155   0.02155   0.02156   0.02157
     Eigenvalues ---    0.15602   0.16000   0.16000   0.16000   0.16000
     Eigenvalues ---    0.16646   0.21819   0.22103   0.23518   0.25691
     Eigenvalues ---    0.33401   0.33711   0.33722   0.33725   0.34187
     Eigenvalues ---    0.36072   0.42146   0.43261   0.46364   0.46461
     Eigenvalues ---    0.46477   0.47825   0.55404
 RFO step:  Lambda=-4.55787606D-04 EMin= 1.29493783D-02
 Quartic linear search produced a step of  0.04955.
 Iteration  1 RMS(Cart)=  0.00925098 RMS(Int)=  0.00020628
 Iteration  2 RMS(Cart)=  0.00017967 RMS(Int)=  0.00000239
 Iteration  3 RMS(Cart)=  0.00000002 RMS(Int)=  0.00000239
 ITry= 1 IFail=0 DXMaxC= 4.31D-02 DCOld= 1.00D+10 DXMaxT= 4.01D-01 DXLimC= 3.00D+00 Rises=F
 Variable       Old X    -DE/DX   Delta X   Delta X   Delta X     New X
                                 (Linear)    (Quad)   (Total)
    R1        2.64492  -0.00037   0.00042  -0.00086  -0.00045   2.64447
    R2        2.64230   0.00011   0.00032   0.00011   0.00043   2.64273
    R3        2.05366  -0.00024  -0.00120  -0.00123  -0.00243   2.05123
    R4        2.64020  -0.00029   0.00023  -0.00048  -0.00025   2.63994
    R5        2.05273   0.00057  -0.00125   0.00126   0.00001   2.05274
    R6        2.63168   0.00482  -0.00026   0.01107   0.01081   2.64248
    R7        2.05282  -0.00035  -0.00125  -0.00161  -0.00286   2.04996
    R8        2.64361   0.00074   0.00039   0.00205   0.00244   2.64605
    R9        2.61085  -0.00578  -0.00453  -0.01675  -0.02128   2.58957
   R10        2.64114   0.00047   0.00023   0.00108   0.00131   2.64245
   R11        2.05713   0.00013  -0.00105  -0.00003  -0.00108   2.05605
   R12        2.05336   0.00023  -0.00122   0.00022  -0.00099   2.05237
   R13        1.82123   0.00103   0.00035   0.00211   0.00247   1.82370
    A1        2.08567  -0.00026  -0.00043  -0.00270  -0.00314   2.08253
    A2        2.09953   0.00005   0.00026   0.00082   0.00108   2.10061
    A3        2.09799   0.00022   0.00017   0.00188   0.00206   2.10005
    A4        2.10736  -0.00006   0.00063  -0.00058   0.00005   2.10741
    A5        2.09448  -0.00013   0.00002  -0.00069  -0.00066   2.09382
    A6        2.08135   0.00020  -0.00066   0.00127   0.00061   2.08196
    A7        2.07932   0.00111  -0.00074   0.00564   0.00490   2.08422
    A8        2.11649   0.00033   0.00108   0.00319   0.00428   2.12077
    A9        2.08738  -0.00145  -0.00034  -0.00884  -0.00918   2.07820
   A10        2.10978  -0.00227   0.00077  -0.00847  -0.00770   2.10209
   A11        2.04407   0.00066  -0.00248   0.00145  -0.00103   2.04305
   A12        2.12933   0.00162   0.00171   0.00702   0.00872   2.13805
   A13        2.08597   0.00024  -0.00042   0.00108   0.00066   2.08663
   A14        2.09707  -0.00038   0.00012  -0.00225  -0.00214   2.09493
   A15        2.10015   0.00014   0.00030   0.00118   0.00147   2.10162
   A16        2.09827   0.00125   0.00019   0.00503   0.00523   2.10349
   A17        2.09714  -0.00040   0.00013  -0.00097  -0.00084   2.09629
   A18        2.08778  -0.00085  -0.00032  -0.00407  -0.00439   2.08340
   A19        1.88047   0.00603  -0.00152   0.03904   0.03752   1.91799
    D1       -0.00001   0.00000  -0.00003   0.00005   0.00002   0.00002
[...]
 ! R12   R(6,11)                 1.0871         -DE/DX =    0.0                 !
 ! R13   R(12,13)                0.9644         -DE/DX =   -0.0001              !
 ! A1    A(2,1,6)              119.3021         -DE/DX =    0.0                 !
 ! A2    A(2,1,7)              120.3826         -DE/DX =    0.0                 !
 ! A3    A(6,1,7)              120.3153         -DE/DX =    0.0                 !
 ! A4    A(1,2,3)              120.7386         -DE/DX =    0.0                 !
 ! A5    A(1,2,8)              119.9883         -DE/DX =    0.0                 !
 ! A6    A(3,2,8)              119.2731         -DE/DX =    0.0                 !
 ! A7    A(2,3,4)              119.5232         -DE/DX =    0.0001              !
 ! A8    A(2,3,9)              121.5499         -DE/DX =    0.0                 !
 ! A9    A(4,3,9)              118.9269         -DE/DX =   -0.0001              !
 ! A10   A(3,4,5)              120.2521         -DE/DX =   -0.0001              !
 ! A11   A(3,4,12)             117.1203         -DE/DX =    0.0001              !
 ! A12   A(5,4,12)             122.6276         -DE/DX =    0.0                 !
 ! A13   A(4,5,6)              119.651          -DE/DX =    0.0001              !
 ! A14   A(4,5,10)             119.9595         -DE/DX =    0.0                 !
 ! A15   A(6,5,10)             120.3895         -DE/DX =    0.0                 !
 ! A16   A(1,6,5)              120.533          -DE/DX =    0.0                 !
 ! A17   A(1,6,11)             120.1325         -DE/DX =    0.0                 !
 ! A18   A(5,6,11)             119.3345         -DE/DX =    0.0                 !
 ! A19   A(4,12,13)            109.9548         -DE/DX =    0.0                 !
 ! D1    D(6,1,2,3)             -0.0005         -DE/DX =    0.0                 !
 ! D2    D(6,1,2,8)           -179.9992         -DE/DX =    0.0                 !
 ! D3    D(7,1,2,3)            179.9992         -DE/DX =    0.0                 !
 ! D4    D(7,1,2,8)              0.0005         -DE/DX =    0.0                 !
 ! D5    D(2,1,6,5)             -0.0008         -DE/DX =    0.0                 !
 ! D6    D(2,1,6,11)           180.0003         -DE/DX =    0.0                 !
 ! D7    D(7,1,6,5)           -180.0005         -DE/DX =    0.0                 !
 ! D8    D(7,1,6,11)             0.0005         -DE/DX =    0.0                 !
 ! D9    D(1,2,3,4)              0.0014         -DE/DX =    0.0                 !
 ! D10   D(1,2,3,9)            180.0009         -DE/DX =    0.0                 !
 ! D11   D(8,2,3,4)            180.0001         -DE/DX =    0.0                 !
 ! D12   D(8,2,3,9)             -0.0004         -DE/DX =    0.0                 !
 ! D13   D(2,3,4,5)             -0.001          -DE/DX =    0.0                 !
 ! D14   D(2,3,4,12)           179.9997         -DE/DX =    0.0                 !
 ! D15   D(9,3,4,5)            179.9995         -DE/DX =    0.0                 !
 ! D16   D(9,3,4,12)             0.0002         -DE/DX =    0.0                 !
 ! D17   D(3,4,5,6)             -0.0003         -DE/DX =    0.0                 !
 ! D18   D(3,4,5,10)           180.0003         -DE/DX =    0.0                 !
 ! D19   D(12,4,5,6)           179.999          -DE/DX =    0.0                 !
 ! D20   D(12,4,5,10)           -0.0004         -DE/DX =    0.0                 !
 ! D21   D(3,4,12,13)          179.996          -DE/DX =    0.0                 !
 ! D22   D(5,4,12,13)           -0.0033         -DE/DX =    0.0                 !
 ! D23   D(4,5,6,1)              0.0012         -DE/DX =    0.0                 !
 ! D24   D(4,5,6,11)          -179.9999         -DE/DX =    0.0                 !
 ! D25   D(10,5,6,1)           180.0006         -DE/DX =    0.0                 !
 ! D26   D(10,5,6,11)           -0.0004         -DE/DX =    0.0                 !
 --------------------------------------------------------------------------------
 GradGradGradGradGradGradGradGradGradGradGradGradGradGradGradGradGradGrad

 Leave Link  103 at Mon Dec 17 12:49:23 2018, MaxMem=   268435456 cpu:               0.3 elap:               0.1
 (Enter /home/apps/g16avx/g16/l9999.exe)

 ----------------------------------------------------------------------

 Electric dipole moment (input orientation):
 (Debye = 10**-18 statcoulomb cm , SI units = C m)
                  (au)            (Debye)         (10**-30 SI)
   Tot        0.505602D+00      0.128511D+01      0.428668D+01
   x         -0.319693D+00     -0.812578D+00     -0.271047D+01
   y          0.160956D+00      0.409109D+00      0.136464D+01
   z         -0.357105D+00     -0.907669D+00     -0.302766D+01

 Dipole polarizability, Alpha (input orientation).
 (esu units = cm**3 , SI units = C**2 m**2 J**-1)
 Alpha(0;0):
               (au)            (10**-24 esu)      (10**-40 SI)
   iso        0.721170D+02      0.106866D+02      0.118905D+02
   aniso      0.460962D+02      0.683076D+01      0.760024D+01
   xx         0.689082D+02      0.102111D+02      0.113614D+02
   yx         0.123736D+02      0.183358D+01      0.204013D+01
   yy         0.852052D+02      0.126261D+02      0.140484D+02
   zx         0.171802D+02      0.254584D+01      0.283263D+01
   zy        -0.109737D+02     -0.162614D+01     -0.180933D+01
   zz         0.622376D+02      0.922266D+01      0.102616D+02

 ----------------------------------------------------------------------

 Dipole orientation:
     6         -3.83617693          1.56203153          2.73174489
     6         -3.22440074          0.46206552          0.40546676
     6         -1.94367213         -1.84128397          0.29857126
     6         -1.26562754         -3.06113889          2.54547775
     6         -1.86757604         -1.97888218          4.88419796
     6         -3.15076862          0.32900922          4.96483106
     1         -4.83311387          3.35504219          2.80219340
     1         -3.74731740          1.40282855         -1.34436375
     1         -1.45662116         -2.71694587         -1.49229743
     1         -1.33585508         -2.93546817          6.62627435
     1         -3.61315324          1.16034615          6.78557134
     8         -0.01260079         -5.31467384          2.33233151
     1          0.35718743         -5.97977926          3.98833936

 Electric dipole moment (dipole orientation):
 (Debye = 10**-18 statcoulomb cm , SI units = C m)
                  (au)            (Debye)         (10**-30 SI)
   Tot        0.505602D+00      0.128511D+01      0.428668D+01
   x          0.000000D+00      0.000000D+00      0.000000D+00
   y          0.000000D+00      0.000000D+00      0.000000D+00
   z          0.505602D+00      0.128511D+01      0.428668D+01

 Dipole polarizability, Alpha (dipole orientation).
 (esu units = cm**3 , SI units = C**2 m**2 J**-1)
 Alpha(0;0):
               (au)            (10**-24 esu)      (10**-40 SI)
   iso        0.721170D+02      0.106866D+02      0.118905D+02
   aniso      0.460962D+02      0.683076D+01      0.760024D+01
   xx         0.537051D+02      0.795827D+01      0.885477D+01
   yx        -0.212556D+02     -0.314975D+01     -0.350457D+01
   yy         0.801153D+02      0.118719D+02      0.132092D+02
   zx         0.426979D+00      0.632718D-01      0.703994D-01
   zy        -0.773907D+00     -0.114681D+00     -0.127600D+00
   zz         0.825306D+02      0.122298D+02      0.136075D+02

 ----------------------------------------------------------------------
 1\1\GINC-NV85\Freq\RB3LYP\Gen\C6H6O1\JPABLO\17-Dec-2018\0\\#P Geom=All
 Check Guess=TCheck SCRF=Check GenChk RB3LYP/ChkBas Freq\\Title Card Re
 quired\\0,1\C,-2.565912907,-0.5567836854,-0.0005642585\C,-1.4709930768
 ,-0.3629743641,0.8494959181\C,-0.7725039266,0.8454552726,0.8489424174\
 C,-1.173431801,1.873478491,-0.0122258815\C,-2.2674271787,1.6911934359,
 -0.867241359\C,-2.9584108567,0.4759250754,-0.8568128434\H,-3.105360145
 1,-1.4996173245,0.0046272078\H,-1.1561080787,-1.1586584081,1.519989879
 7\H,0.078729152,1.0100272083,1.5028369811\H,-2.5751625108,2.4939966747
 ,-1.5351175346\H,-3.8068774477,0.3399877989,-1.5226583838\O,-0.4537253
 891,3.0374846515,0.0278096084\H,-0.8164710939,3.6705961536,-0.60281854
 18\\Version=ES64L-G16RevA.03\State=1-A\HF=-307.4979746\RMSD=4.572e-09\
 RMSF=1.491e-04\ZeroPoint=0.1045191\Thermal=0.110069\Dipole=-0.3196926,
 0.160956,-0.3571045\DipoleDeriv=-0.1574021,0.0586939,-0.0259719,0.0763
 438,-0.0711164,0.0208902,-0.0348016,0.005625,-0.1942452,0.0726924,0.05
 17769,0.1472796,0.1160904,0.1105964,-0.0187503,0.1150959,-0.0743702,0.
 0092242,-0.0541161,0.066092,0.0591548,-0.1525525,-0.3055613,-0.0594855
 ,0.1685697,0.1296306,-0.0798174,0.4319969,0.615656,-0.0132759,0.617413
 7,1.2035683,-0.0226154,-0.0141562,-0.0241398,0.0909994,-0.2118372,-0.2
 467161,0.0968646,-0.0076957,-0.1702928,-0.0120576,-0.0227369,-0.218799
 9,-0.0912786,0.0150129,0.092537,0.0747022,-0.0026323,0.1355072,-0.1325
 723,0.122313,-0.0502581,0.0060581,0.0532186,-0.0874475,-0.0363164,-0.0
 881091,-0.0498666,0.0216985,-0.0359874,0.0222703,0.1035252,0.0781704,0
 .023955,-0.056931,0.0208918,-0.0137896,0.0900879,-0.0553977,0.0927313,
 0.0358168,0.0197497,-0.0360443,-0.0921517,-0.0378509,0.0765383,0.00259
 37,-0.0912486,0.0041573,0.0661445,0.0882128,-0.0034361,-0.0490473,0.00
 23421,-0.0564671,0.1037905,-0.0519406,0.0987933,0.0525482,-0.0102771,-
 0.0330378,-0.1058301,-0.0273768,0.0724373,0.0057199,-0.1086574,0.00082
 48,0.0367959,-0.5656549,-0.5538228,0.0946384,-0.5523408,-1.2829245,-0.
 0132434,0.0938895,-0.0145349,-0.2661628,0.2402337,0.0517937,-0.0931153
 ,0.0354765,0.3513707,0.0139438,-0.0849419,0.0280703,0.2303918\Polar=68
 .9082119,12.3735833,85.2051721,17.1801913,-10.9737433,62.237577\Quadru
 pole=-2.0874485,2.6926597,-0.6052112,-0.3331407,1.9618203,-3.7188809\P
 G=C01 [X(C6H6O1)]\NImag=0\\0.47716326,0.15284433,0.65665465,0.22813222
 ,-0.13384045,0.38927849,-0.22750108,-0.05804294,-0.11495358,0.47114989
 ,-0.01447071,-0.12165675,0.01782565,0.09986273,0.63889474,-0.13675595,
 -0.01986124,-0.16936640,0.24111109,-0.16596251,0.42620085,-0.02240478,
 -0.02313350,-0.01384953,-0.15626791,-0.13160342,-0.02008998,0.51617017
 ,-0.05442790,0.01323525,-0.05020068,-0.08872835,-0.28222818,0.03600852
 ,0.14201366,0.61595389,0.00180959,-0.02313325,0.02013201,-0.04154375,-
 0.00107515,-0.09229626,0.26892287,-0.12379428,0.41762530,-0.02814382,0
 .01928416,-0.02991898,0.04177890,0.01641399,0.02702857,-0.12716579,0.0
 1003620,-0.05650947,0.48753482,0.01927306,-0.00672537,0.01767867,-0.01
 971181,-0.04939661,0.00818471,0.06078702,-0.20437238,0.12099528,0.1016
 8555,0.62030996,-0.02991291,0.01768808,-0.03943311,0.04510540,0.039431
 61,0.02031497,-0.08190466,0.07709972,-0.17705590,0.23508015,-0.1439269
 6,0.43226163,0.03748472,-0.01921281,0.03569120,-0.03582045,-0.02352849
 ,-0.01641824,-0.00163156,0.04744169,-0.03157524,-0.21513059,-0.0474961
 5,-0.10525096,0.46236696,0.01311875,-0.04733418,0.03870227,-0.02673114
 ,-0.02155577,-0.01394863,0.01886978,0.03802064,0.00101276,0.00635109,-
 0.12111388,0.03308933,0.11073445,0.64718542,0.01951307,0.01073796,0.01
 883991,-0.01481618,-0.01117883,-0.01044751,-0.01727797,0.02572588,-0.0
 2038864,-0.13219586,-0.01348519,-0.17355696,0.24091862,-0.16813097,0.4
 1227205,-0.11780944,0.05149694,-0.07480993,-0.00513878,0.02037892,-0.0
 2016227,-0.00271657,-0.00456373,0.00234477,-0.02560253,-0.02204378,-0.
 01224617,-0.15160626,-0.12863444,-0.01773073,0.50919073,0.00787638,-0.
 23202900,0.09233937,0.05388909,0.03910529,0.03023622,-0.00668191,-0.05
 382592,0.01975967,-0.05871271,0.01856113,-0.05941547,-0.08557836,-0.27
 829217,0.03686317,0.12044059,0.59641113,-0.05298274,0.13006808,-0.1720
 2299,-0.03693014,0.00125233,-0.02618659,0.00340475,0.02159150,-0.01064
 681,0.00610268,-0.02769922,0.02044698,-0.03927532,-0.00037741,-0.09047
 243,0.26496108,-0.12761950,0.42621312,-0.11834425,-0.12769914,-0.01041
 305,-0.00811586,-0.02156992,0.00232654,-0.00060593,-0.00067577,-0.0057
 5241,-0.00057142,0.00081678,-0.00064383,0.00252016,0.00035333,-0.00372
 611,0.00740405,0.00958818,0.00014056,0.11987748,-0.12763175,-0.2682634
 2,0.00761481,0.00034639,0.00024772,0.00101282,-0.00137828,0.00231841,0
 .00086809,0.00070491,0.00029323,0.00031306,0.00102926,-0.00058718,0.00
 449850,-0.01236781,-0.01524188,-0.00222269,0.13790401,0.28187966,-0.01
 044682,0.00755634,-0.04524596,-0.00864009,-0.01794352,0.00317860,-0.00
 540081,0.00147572,0.00102584,-0.00058794,0.00040990,-0.00101324,-0.004
 06427,0.00391385,0.00114982,0.01112715,0.01676805,0.00292845,0.0138232
 2,-0.00970311,0.04092716,-0.00204599,0.01918998,-0.01434910,-0.0744233
 6,0.05484865,-0.05976780,0.00813080,-0.01217358,0.01022350,0.00153279,
 -0.00431911,-0.00325858,-0.00084731,-0.00057989,0.00031712,-0.00118145
 ,-0.00274230,-0.00547259,-0.00100471,0.00073350,0.00207058,0.07129786,
 -0.00241641,0.00696414,-0.00385244,0.05464201,-0.20640770,0.13200307,0
 .00930145,-0.01517822,0.01731772,-0.00476987,-0.00133249,0.00044382,-0
 .00048517,-0.00021141,-0.00075344,-0.00212716,0.00197775,0.00053919,0.
 00120821,0.00013468,-0.00093531,-0.05658037,0.21544583,-0.00353808,0.0
 1483577,-0.00704161,-0.05966399,0.13218135,-0.15479820,-0.00052222,-0.
 00125626,0.00353025,-0.00303306,0.00083380,0.00475852,0.00026990,-0.00
 083529,-0.00022708,-0.00578051,0.00000688,0.00172908,0.00183307,-0.001
 34593,-0.00156405,0.06788211,-0.14395892,0.15629449,0.00289469,-0.0040
 3018,-0.00174276,-0.00750444,0.00018563,-0.00831995,-0.22341272,-0.036
 26863,-0.14605949,-0.00394593,-0.00430174,-0.00530921,0.00263139,0.000
 50619,-0.00262251,0.00012278,0.00033273,0.00071088,-0.00028906,-0.0000
 1453,-0.00060619,-0.00114456,0.00087229,0.00224943,0.23194437,-0.00341
 354,-0.00349998,0.00242241,-0.02089589,0.00119916,-0.01766884,-0.03779
 808,-0.06113463,-0.01889322,0.01838260,0.00757800,0.01444990,-0.000181
 71,-0.00280121,0.00393192,0.00001967,-0.00120220,0.00017243,-0.0011301
 0,-0.00005991,-0.00073725,0.00128165,0.00015038,-0.00109336,0.04177351
 ,0.05836332,-0.00205141,0.00188909,0.00452179,0.00222916,0.00056492,0.
 00365273,-0.14529447,-0.01757015,-0.15043359,-0.01665988,-0.00517050,-
 0.00714112,-0.00227847,0.00452679,0.00113492,0.00086749,0.00044329,-0.
 00036311,-0.00004795,0.00022767,0.00026483,0.00204462,-0.00144742,-0.0
 0175731,0.15917581,0.01880571,0.15200371,0.00132869,-0.00421708,-0.002
 70279,-0.00100369,-0.00074642,0.00017896,-0.00173944,-0.00253430,-0.00
 477461,-0.00228801,0.01906458,-0.01478570,-0.07155045,0.05233559,-0.06
 096325,0.00801714,-0.01159541,0.01106521,0.00039830,-0.00073420,0.0003
 1310,-0.00025096,0.00024788,0.00038682,-0.00020702,0.00100652,-0.00070
 197,0.06853660,-0.00508889,-0.00226116,0.00017898,-0.00043100,-0.00020
 256,-0.00066110,-0.00181294,0.00199067,0.00006127,-0.00426490,0.002357
 21,-0.00297823,0.05242686,-0.20200993,0.13074297,0.01018239,-0.0153597
 2,0.01745972,0.00041984,-0.00081573,0.00100204,0.00025603,-0.00012742,
 -0.00013590,-0.00009968,0.00018860,-0.00016943,-0.05469347,0.21315410,
 -0.00226656,0.00093312,0.00446581,0.00002106,-0.00093392,-0.00029322,-
 0.00513554,-0.00056262,0.00108659,-0.00311183,0.01720048,-0.00752100,-
 0.06100897,0.13066410,-0.14949462,0.00016808,-0.00137688,0.00276653,-0
 .00026437,0.00000385,0.00023049,0.00038273,-0.00014295,-0.00043901,-0.
 00014846,0.00078736,-0.00050011,0.06764378,-0.14297019,0.15201723,-0.0
 0275696,-0.00285358,-0.00397215,0.00331011,0.00047122,-0.00332332,0.00
 005760,0.00014034,0.00082030,0.00317116,-0.00378040,-0.00173966,-0.007
 99911,-0.00008025,-0.00956093,-0.22144513,-0.03233575,-0.14394130,-0.0
 0103262,0.00124787,0.00191235,-0.00025896,-0.00020433,-0.00018889,-0.0
 0036216,0.00017953,0.00032089,-0.00106021,0.00081661,0.00218001,0.2291
 6473,0.01878146,0.00778976,0.01409143,-0.00021480,-0.00244507,0.004480
 23,0.00004738,-0.00110115,0.00010562,-0.00316420,-0.00334167,0.0026227
 5,-0.02151601,0.00060064,-0.01735860,-0.03219453,-0.06043883,-0.015777
 28,0.00078256,0.00010159,-0.00135826,0.00095616,0.00019224,0.00076967,
 0.00018134,-0.00000103,-0.00026147,0.00118943,0.00014048,-0.00106959,0
 .03659046,0.05884329,-0.01479838,-0.00462139,-0.00700078,-0.00297989,0
 .00507385,0.00176346,0.00086688,0.00018596,-0.00031525,-0.00204790,0.0
 0208971,0.00455251,0.00116481,0.00118179,0.00351747,-0.14401141,-0.015
 89941,-0.15292390,0.00214522,-0.00095581,-0.00163179,-0.00076961,-0.00
 023409,-0.00047092,0.00031996,-0.00026304,-0.00042864,0.00199347,-0.00
 139202,-0.00163230,0.15808022,0.01482919,0.15453933,0.00031478,-0.0037
 2566,0.00313871,-0.00185370,0.00016194,-0.00570411,0.01297360,0.003809
 80,0.00308220,-0.13805380,-0.08122901,-0.04296037,-0.02107786,-0.04381
 390,-0.00426631,0.00144637,0.00550887,-0.00777552,-0.00018050,0.000026
 92,0.00054901,0.00039296,0.00044781,0.00002308,-0.00058706,0.00078267,
 0.00199353,0.00053140,0.00165603,0.00294888,-0.00081840,-0.00146460,0.
 00001477,0.25051983,-0.00424421,-0.00364536,-0.00242657,0.00490673,0.0
 0451817,0.00430893,-0.02328215,-0.05023858,0.00860761,-0.11790266,-0.2
 3261168,-0.00629457,-0.01615940,-0.01615994,-0.00128570,-0.00080070,0.
 00137481,0.00224718,0.00002623,-0.00008883,-0.00034866,-0.00063634,-0.
 00124514,0.00012625,0.00075232,0.00104671,-0.00154670,0.00216981,0.002
 93426,-0.00151144,-0.00038892,-0.00059135,-0.00003466,0.02641845,0.524
 75758,0.00339799,-0.00197823,0.00277022,-0.00807840,0.00020535,-0.0024
 4209,0.01663885,0.03203973,0.00556506,-0.02460638,0.02543008,-0.075403
 69,-0.01810439,-0.02520467,0.00615532,-0.00461832,0.00770421,-0.000600
 36,0.00054936,-0.00034798,-0.00018148,0.00056562,0.00106407,0.00006398
 ,0.00200866,-0.00152048,-0.00084650,0.00269184,-0.00195551,-0.00052929
 ,-0.00052339,-0.00096494,0.00004187,0.18154630,-0.22707220,0.29603730,
 -0.00017983,0.00009947,-0.00025024,0.00139037,-0.00040414,-0.00010354,
 -0.00138747,-0.00406943,-0.00098826,0.00688422,-0.01874499,0.01782651,
 0.00066037,-0.00242956,0.00241104,-0.00068093,0.00001061,-0.00000755,-
 0.00005563,0.00013370,-0.00004930,-0.00019710,-0.00013634,0.00008235,-
 0.00014029,-0.00000682,0.00040267,-0.00071233,0.00063312,-0.00140882,0
 .00002997,0.00002536,0.00002186,-0.10360762,0.12914084,-0.15146774,0.0
 9799627,-0.00020057,0.00077142,-0.00053345,0.00110897,-0.00007244,0.00
 186782,-0.00532901,-0.00343982,-0.00183213,0.01595585,-0.03020544,0.02
 747696,0.00252584,0.00425898,-0.00030766,0.00021364,-0.00104039,0.0003
 6567,-0.00002422,0.00008166,-0.00009980,-0.00023438,-0.00036265,-0.000
 12805,0.00011074,0.00017279,-0.00029181,-0.00149294,0.00001121,-0.0010
 2132,0.00019720,0.00025111,0.00003993,0.09142067,-0.23005066,0.1926005
 7,-0.10425180,0.25962424,-0.00010000,-0.00027388,0.00010261,-0.0008606
 9,0.00055887,0.00071965,-0.00035817,-0.00074305,0.00217139,0.00045991,
 -0.00254077,-0.00120960,-0.00006866,-0.00459392,0.00151774,-0.00010921
 ,0.00019040,-0.00086798,0.00002973,0.00003673,-0.00006869,0.00013140,-
 0.00004331,-0.00007814,0.00034383,-0.00039352,-0.00010759,-0.00034487,
 0.00081741,-0.00015710,-0.00006413,-0.00010875,-0.00001108,-0.13259018
 ,0.22523053,-0.23063034,0.13353102,-0.21813673,0.22861911\\0.00016366,
 -0.00012190,0.00020289,-0.00030340,-0.00025735,-0.00013119,0.00031016,
 0.00052812,0.00000160,0.00006144,-0.00020429,0.00015759,-0.00015618,0.
 00010500,-0.00018641,-0.00000821,0.00017346,-0.00009666,0.00000766,0.0
 0002961,-0.00000828,0.00000317,0.00001357,-0.00000459,-0.00005526,-0.0
 0005010,-0.00002287,0.00002598,-0.00006323,0.00005409,0.00000169,-0.00
 002969,0.00001675,-0.00004667,-0.00017310,0.00004612,-0.00000403,0.000
 04991,-0.00002904\\\@


 A SUCCESSFUL PURSUIT OF SCIENCE MAKES A MAN THE
 BENEFACTOR OF ALL MANKIND OF EVERY AGE.
   --  JOSEPH PRIESTLEY, "EXPERIMENTS AND
 OBSERVATIONS ON DIFFERENT KINDS OF AIR", 1774
 Job cpu time:       0 days  0 hours 25 minutes 25.8 seconds.
 Elapsed time:       0 days  0 hours  3 minutes 10.9 seconds.
 File lengths (MBytes):  RWF=     42 Int=      0 D2E=      0 Chk=      4 Scr=      1
 Normal termination of Gaussian 16 at Mon Dec 17 12:49:24 2018.
