 Entering Gaussian System, Link 0=g16
 Input=tetrameroF_b3lypd3_n07d_ccl4_of.com
 Output=tetrameroF_b3lypd3_n07d_ccl4_of.log
 AtFile(1): N07D_B3LYP.gbs
             -H 0
             6-31G
             P   1 1.00       0.000000000000
                  0.7500000000D+00  0.10000000D+01
             ****
             -He 0
             6-31G**
             ****
             -Li 0
             6-31+G**
             ****
             -Be 0
             6-31+G**
             ****
             -B 0
             6-31G
             P   1 1.00       0.000000000000
                  0.3500000000D-01  0.1000000000D+01
             D   1 1.00       0.000000000000
                  0.3430000000D+00  0.1000000000D+01
             ****
             -C 0
             6-31G
             S   1 1.00       0.000000000000
                  0.7500000000D+01  0.1000000000D+01
             P   1 1.00       0.000000000000
                  0.5000000000D-01  0.1000000000D+01
             D   1 1.00       0.000000000000
                  0.8200000000D+00  0.1000000000D+01
             ****
             -N 0
             6-31G
             S   1 1.00       0.000000000000
                  0.1260000000D+02  0.1000000000D+01
             P   1 1.00       0.000000000000
                  0.5300000000D-01  0.1000000000D+01
             D   1 1.00       0.000000000000
                  0.1015000000D+01  0.1000000000D+01
             ****
             -O 0
             6-31G
             S   1 1.00
                  0.1510000000D+02  0.1000000000D+01
             P   1 1.00       0.000000000000
                  0.6500000000D-01  0.1000000000D+01
             D   1 1.00        0.000000000000
                  0.1190000000D+01  0.1000000000D+01
             D   1 1.00        0.000000000000
                  0.1800000000D+00  0.1000000000D+01
             ****
             -F 0
             6-31G
             S   1 1.00
                  0.1830000000D+02  0.1000000000D+01
             P   1 1.00       0.000000000000
                  0.8300000000D-01  0.1000000000D+01
             D   1 1.00       0.000000000000
                  1.3700000000D+00  0.1000000000D+01
             D   1 1.00       0.000000000000
                  0.2300000000D+00  0.1000000000D+01
             ****
             -Ne 0
             6-31+G**
             ****
             -Na 0
             6-31+G**
             ****
             -Mg 0
             6-31+G**
             ****
             -Al 0
             6-31G
             S   1 1.00      0.000000000000
                  0.3100000000D+01  0.1000000000D+01
             P   1 1.00      0.000000000000
                  0.1500000000D-01  0.1000000000D+01
             D   1 1.00      0.000000000000
                  0.1890000000D+00  0.1000000000D+01
             ****
             -Si 0
             6-31G
             S   1 1.0
                  0.3600000000D+01  0.1000000000D+01
             P   1 1.00       0.000000000000
                  0.3300000000D-01  0.1000000000D+01
             D   1 1.0        0.000000000000
                  0.2750000000D+00  0.1000000000D+01
             ****
             -P  0
             6-31G
             S   1 1.00       0.000000000000
                  0.5500000000D+01  0.1000000000D+01
             P   1 1.00       0.000000000000
                  0.3500000000D-01  0.1000000000D+01
             D   1 1.00       0.000000000000
                  0.3730000000D+00  0.1000000000D+01
             ****
             -S  0
             6-31G
             S   1 1.00       0.000000000000
                  0.8000000000D+01  0.1000000000D+01
             P   1 1.00        0.000000000000
                  0.4100000000D-01  0.1000000000D+01
             D   1 1.00        0.000000000000
                  0.4790000000D+00  0.1000000000D+01
             ****
            -Cl 0
             6-31G
             S   1 1.00      0.000000000000
                  0.8500000000D+01  0.1000000000D+01
             P   1 1.00      0.000000000000
                  0.4800000000D-01  0.1000000000D+01
             D   1 1.00      0.000000000000
                  0.6000000000D+00  0.1000000000D+01
             D   1 1.00       0.000000000000
                  0.1960000000D+00  0.1000000000D+01
             ****
            -Br 0
             S   3 1.00       0.000000000000
                  0.4721881000D+01  0.1749732514D+00
                  0.2257555000D+01 -0.7074172290D+00
                  0.3896080000D+00  0.1258999543D+01
             S   1 1.00       0.000000000000
                  0.1471340000D+00  0.1000000000D+01
             P   3 1.00       0.000000000000
                  0.1896942000D+01 -0.2464576731D+00
                  0.9108990000D+00  0.3623179892D+00
                  0.3168550000D+00  0.8338469725D+00
             P   1 1.00       0.000000000000
                  0.1095030000D+00  0.1000000000D+01
             P   1 1.00       0.000000000000
                  0.3609700000D-01  0.1000000000D+01
             D   1 1.00
                  0.4750000000D+00  0.1000000000D+01
             D   1 1.00
                  0.1280000000D+00  0.1000000000D+01
             ****
            -I   0
             S   3 1.00       0.000000000000
                  0.2122765000D+01  0.2063429899D+01
                  0.1770481000D+01 -0.2869526473D+01
                  0.3130840000D+00  0.1404747074D+01
             S   1 1.00       0.000000000000
                  0.1320000000D+00  0.1000000000D+01
             P   3 1.00       0.000000000000
                  0.2432887000D+01  0.7732753148D+00
                  0.2137249000D+01 -0.1020833156D+01
                  0.3145460000D+00  0.1095666871D+01
             P   1 1.00       0.000000000000
                  0.1049450000D+00  0.1000000000D+01
             P   1 1.00       0.000000000000
                  0.3264100000D-01  0.1000000000D+01
             D   1 1.00
                  0.300000000          1.00000000
             D   1 1.00
                  0.090000000          1.00000000
             ****
             -Zn 0
             SP   6 1.00       0.000000000000
                  0.6936492000D+02 -0.4440098182D-02 -0.7689261805D-02
                  0.2362082000D+02  0.7505253308D-01 -0.2997981924D-01
                  0.1018471000D+02  0.2533111104D+00  0.7082410821D-01
                  0.4334082000D+01 -0.2881897118D+00  0.4046140897D+00
                  0.1810918000D+01 -0.7267052298D+00  0.4882324876D+00
                  0.7148410000D+00 -0.2133439088D+00  0.1751969956D+00
             SP   3 1.00       0.000000000000
                  0.2823842000D+01  0.4898545031D-01 -0.1586762981D+00
                  0.1039543000D+01  0.2592794075D+00  0.8379326898D-01
                  0.1432640000D+00 -0.1115711463D+01  0.9840546881D+00
             SP   1 1.00       0.000000000000
                  0.4929600000D-01  0.1000000000D+01  0.1000000000D+01
             S    1 1.00       0.000000000000
                  0.1620000000D+00  0.1000000000D+01
             D    3 1.00       0.000000000000
                  0.3370764000D+02  0.9262647815D-01
                  0.9061106000D+01  0.4002979920D+00
                  0.2738383000D+01  0.6896607863D+00
             D    1 1.00
                  0.2440000000D+01  0.1000000000D+01
             D    1 1.00       0.000000000000
                  0.7302940000D+00  0.1000000000D+01
             D    1 1.00       0.000000000000
                  0.1620000000D+00  0.1000000000D+01
             ****
             -Br,-I,-Zn 0
             SDDALL
            ****
 Initial command:
 /home/apps/g16/g16/l1.exe "/scratch/gaussian/jpablo/Gau-13245.inp" -scrdir="/scratch/gaussian/jpablo/"
 Entering Link 1 = /home/apps/g16/g16/l1.exe PID=     13246.
  
 Copyright (c) 1988,1990,1992,1993,1995,1998,2003,2009,2016,
            Gaussian, Inc.  All Rights Reserved.
  
 This is part of the Gaussian(R) 16 program.  It is based on
 the Gaussian(R) 09 system (copyright 2009, Gaussian, Inc.),
 the Gaussian(R) 03 system (copyright 2003, Gaussian, Inc.),
 the Gaussian(R) 98 system (copyright 1998, Gaussian, Inc.),
 the Gaussian(R) 94 system (copyright 1995, Gaussian, Inc.),
 the Gaussian 92(TM) system (copyright 1992, Gaussian, Inc.),
 the Gaussian 90(TM) system (copyright 1990, Gaussian, Inc.),
 the Gaussian 88(TM) system (copyright 1988, Gaussian, Inc.),
 the Gaussian 86(TM) system (copyright 1986, Carnegie Mellon
 University), and the Gaussian 82(TM) system (copyright 1983,
 Carnegie Mellon University). Gaussian is a federally registered
 trademark of Gaussian, Inc.
  
 This software contains proprietary and confidential information,
 including trade secrets, belonging to Gaussian, Inc.
  
 This software is provided under written license and may be
 used, copied, transmitted, or stored only in accord with that
 written license.
  
 The following legend is applicable only to US Government
 contracts under FAR:
  
                    RESTRICTED RIGHTS LEGEND
  
 Use, reproduction and disclosure by the US Government is
 subject to restrictions as set forth in subparagraphs (a)
 and (c) of the Commercial Computer Software - Restricted
 Rights clause in FAR 52.227-19.
  
 Gaussian, Inc.
 340 Quinnipiac St., Bldg. 40, Wallingford CT 06492
  
  
 ---------------------------------------------------------------
 Warning -- This program may not be used in any manner that
 competes with the business of Gaussian, Inc. or will provide
 assistance to any competitor of Gaussian, Inc.  The licensee
 of this program is prohibited from giving any competitor of
 Gaussian, Inc. access to this program.  By using this program,
 the user acknowledges that Gaussian, Inc. is engaged in the
 business of creating and licensing software in the field of
 computational chemistry and represents and warrants to the
 licensee that it is not a competitor of Gaussian, Inc. and that
 it will not use this program in any manner prohibited above.
 ---------------------------------------------------------------
  

 Cite this work as:
 Gaussian 16, Revision A.03,
 M. J. Frisch, G. W. Trucks, H. B. Schlegel, G. E. Scuseria, 
 M. A. Robb, J. R. Cheeseman, G. Scalmani, V. Barone, 
 G. A. Petersson, H. Nakatsuji, X. Li, M. Caricato, A. V. Marenich, 
 J. Bloino, B. G. Janesko, R. Gomperts, B. Mennucci, H. P. Hratchian, 
 J. V. Ortiz, A. F. Izmaylov, J. L. Sonnenberg, D. Williams-Young, 
 F. Ding, F. Lipparini, F. Egidi, J. Goings, B. Peng, A. Petrone, 
 T. Henderson, D. Ranasinghe, V. G. Zakrzewski, J. Gao, N. Rega, 
 G. Zheng, W. Liang, M. Hada, M. Ehara, K. Toyota, R. Fukuda, 
 J. Hasegawa, M. Ishida, T. Nakajima, Y. Honda, O. Kitao, H. Nakai, 
 T. Vreven, K. Throssell, J. A. Montgomery, Jr., J. E. Peralta, 
 F. Ogliaro, M. J. Bearpark, J. J. Heyd, E. N. Brothers, K. N. Kudin, 
 V. N. Staroverov, T. A. Keith, R. Kobayashi, J. Normand, 
 K. Raghavachari, A. P. Rendell, J. C. Burant, S. S. Iyengar, 
 J. Tomasi, M. Cossi, J. M. Millam, M. Klene, C. Adamo, R. Cammi, 
 J. W. Ochterski, R. L. Martin, K. Morokuma, O. Farkas, 
 J. B. Foresman, and D. J. Fox, Gaussian, Inc., Wallingford CT, 2016.
 
 ******************************************
 Gaussian 16:  ES64L-G16RevA.03 25-Dec-2016
                20-Jun-2019 
 ******************************************
 %chk=tetrameroF_b3lypd3_n07d_ccl4_of.chk
 %mem=2GB
 %nprocshared=8
 Will use up to    8 processors via shared memory.
 ----------------------------------------------------------------------
 #p opt freq b3lyp/gen scrf=(solvent=ccl4,pcm) geom=connectivity empiri
 caldispersion=gd3
 ----------------------------------------------------------------------
 1/18=20,19=15,26=3,38=1,57=2/1,3;
 2/9=110,12=2,17=6,18=5,40=1/2;
 3/5=7,11=2,25=1,30=1,70=2201,71=1,72=11,74=-5,124=31/1,2,3;
 4//1;
 5/5=2,38=5,53=11/2;
 6/7=2,8=2,9=2,10=2,28=1/1;
 7//1,2,3,16;
 1/18=20,19=15,26=3/3(2);
 2/9=110/2;
 99//99;
 2/9=110/2;
 3/5=7,6=1,11=2,25=1,30=1,70=2205,71=1,72=11,74=-5,82=7,124=31/1,2,3;
 4/5=5,16=3,69=1/1;
 5/5=2,38=5,53=11/2;
 7//1,2,3,16;
 1/18=20,19=15,26=3/3(-5);
 2/9=110/2;
 6/7=2,8=2,9=2,10=2,19=2,28=1/1;
 99/9=1/99;
 Leave Link    1 at Thu Jun 20 17:21:53 2019, MaxMem=   268435456 cpu:               0.6 elap:               0.1
 (Enter /home/apps/g16/g16/l101.exe)
 -----
 Title
 -----
 Symbolic Z-matrix:
 Charge =  0 Multiplicity = 1
 C                    -4.72093   1.34313  -1.81661 
 C                    -5.36675   0.4296   -0.97638 
 C                    -4.63126  -0.61037  -0.39972 
 C                    -3.26238  -0.74172  -0.65041 
 C                    -2.63002   0.1766   -1.49606 
 C                    -3.35547   1.21993  -2.08167 
 H                    -5.28141   2.15523  -2.27264 
 H                    -6.42963   0.52737  -0.77403 
 H                    -5.11987  -1.32527   0.25739 
 H                    -2.84053   1.91669  -2.7372 
 H                    -2.69157  -1.54331  -0.18976 
 O                    -1.28335   0.12086  -1.76217 
 H                    -0.88131  -0.71837  -1.44072 
 C                     0.63858   4.18988   2.1939 
 C                    -0.71513   4.35209   2.50872 
 C                    -1.68007   3.67643   1.75614 
 C                    -1.30631   2.844     0.6969 
 C                     0.05059   2.69308   0.39336 
 C                     1.02655   3.36286   1.13842 
 H                     1.39897   4.70882   2.7719 
 H                    -1.01324   4.99659   3.3309 
 H                    -2.7351    3.79178   1.99098 
 H                     2.07413   3.2277    0.88345 
 C                     3.39366  -0.12886  -0.37215 
 C                     3.91861   0.9965   -1.01754 
 C                     5.26219   0.99872  -1.40346 
 C                     6.07723  -0.10947  -1.15405 
 C                     5.53693  -1.22917  -0.51175 
 C                     4.19771  -1.24426  -0.11786 
 H                     3.27798   1.85099  -1.22023 
 H                     5.66929   1.87282  -1.90539 
 H                     7.12025  -0.10209  -1.45774 
 H                     6.16055  -2.09729  -0.31405 
 H                     3.76521  -2.10524   0.38437 
 O                     2.0829   -0.18353   0.03447 
 H                     1.60421   0.6521   -0.18016 
 H                    -2.0598    2.31893   0.11653 
 O                     0.48835   1.88819  -0.63387 
 H                    -0.25179   1.40412  -1.06602 
 C                    -1.62502  -4.66147   0.8213 
 C                    -1.19124  -4.5495    2.14675 
 C                    -0.26118  -3.56092   2.48342 
 C                     0.23277  -2.68517   1.51245 
 C                    -0.2078   -2.81062   0.18914 
 C                    -1.13527  -3.79789  -0.16089 
 H                    -2.34565  -5.42756   0.54649 
 H                    -1.573    -5.2247    2.9074 
 H                     0.08139  -3.46263   3.51041 
 H                    -1.45526  -3.87685  -1.19608 
 H                     0.94568  -1.90673   1.7711 
 O                     0.22751  -1.96758  -0.80375 
 H                     0.9813   -1.41705  -0.4859 
 
 Add virtual bond connecting atoms O38        and H36        Dist= 3.26D+00.
 Add virtual bond connecting atoms H52        and O35        Dist= 3.28D+00.
 Add virtual bond connecting atoms H39        and O12        Dist= 3.38D+00.
 Add virtual bond connecting atoms O51        and H13        Dist= 3.38D+00.
 ITRead=  0  0  0  0  0  0  0  0  0  0  0  0  0  0  0  0  0  0  0  0
 ITRead=  0  0  0  0  0  0  0  0  0  0  0  0  0  0  0  0  0  0  0  0
 ITRead=  0  0  0  0  0  0  0  0  0  0  0  0
 MicOpt= -1 -1 -1 -1 -1 -1 -1 -1 -1 -1 -1 -1 -1 -1 -1 -1 -1 -1 -1 -1
 MicOpt= -1 -1 -1 -1 -1 -1 -1 -1 -1 -1 -1 -1 -1 -1 -1 -1 -1 -1 -1 -1
 MicOpt= -1 -1 -1 -1 -1 -1 -1 -1 -1 -1 -1 -1
 NAtoms=     52 NQM=       52 NQMF=       0 NMMI=      0 NMMIF=      0
                NMic=       0 NMicF=      0.
                    Isotopes and Nuclear Properties:
 (Nuclear quadrupole moments (NQMom) in fm**2, nuclear magnetic moments (NMagM)
  in nuclear magnetons)

  Atom         1           2           3           4           5           6           7           8           9          10
 IAtWgt=          12          12          12          12          12          12           1           1           1           1
 AtmWgt=  12.0000000  12.0000000  12.0000000  12.0000000  12.0000000  12.0000000   1.0078250   1.0078250   1.0078250   1.0078250
 NucSpn=           0           0           0           0           0           0           1           1           1           1
 AtZEff=  -0.0000000  -0.0000000  -0.0000000  -0.0000000  -0.0000000  -0.0000000  -0.0000000  -0.0000000  -0.0000000  -0.0000000
 NQMom=    0.0000000   0.0000000   0.0000000   0.0000000   0.0000000   0.0000000   0.0000000   0.0000000   0.0000000   0.0000000
 NMagM=    0.0000000   0.0000000   0.0000000   0.0000000   0.0000000   0.0000000   2.7928460   2.7928460   2.7928460   2.7928460
 AtZNuc=   6.0000000   6.0000000   6.0000000   6.0000000   6.0000000   6.0000000   1.0000000   1.0000000   1.0000000   1.0000000

  Atom        11          12          13          14          15          16          17          18          19          20
 IAtWgt=           1          16           1          12          12          12          12          12          12           1
 AtmWgt=   1.0078250  15.9949146   1.0078250  12.0000000  12.0000000  12.0000000  12.0000000  12.0000000  12.0000000   1.0078250
 NucSpn=           1           0           1           0           0           0           0           0           0           1
 AtZEff=  -0.0000000  -0.0000000  -0.0000000  -0.0000000  -0.0000000  -0.0000000  -0.0000000  -0.0000000  -0.0000000  -0.0000000
 NQMom=    0.0000000   0.0000000   0.0000000   0.0000000   0.0000000   0.0000000   0.0000000   0.0000000   0.0000000   0.0000000
 NMagM=    2.7928460   0.0000000   2.7928460   0.0000000   0.0000000   0.0000000   0.0000000   0.0000000   0.0000000   2.7928460
 AtZNuc=   1.0000000   8.0000000   1.0000000   6.0000000   6.0000000   6.0000000   6.0000000   6.0000000   6.0000000   1.0000000

  Atom        21          22          23          24          25          26          27          28          29          30
 IAtWgt=           1           1           1          12          12          12          12          12          12           1
 AtmWgt=   1.0078250   1.0078250   1.0078250  12.0000000  12.0000000  12.0000000  12.0000000  12.0000000  12.0000000   1.0078250
 NucSpn=           1           1           1           0           0           0           0           0           0           1
 AtZEff=  -0.0000000  -0.0000000  -0.0000000  -0.0000000  -0.0000000  -0.0000000  -0.0000000  -0.0000000  -0.0000000  -0.0000000
 NQMom=    0.0000000   0.0000000   0.0000000   0.0000000   0.0000000   0.0000000   0.0000000   0.0000000   0.0000000   0.0000000
 NMagM=    2.7928460   2.7928460   2.7928460   0.0000000   0.0000000   0.0000000   0.0000000   0.0000000   0.0000000   2.7928460
 AtZNuc=   1.0000000   1.0000000   1.0000000   6.0000000   6.0000000   6.0000000   6.0000000   6.0000000   6.0000000   1.0000000

  Atom        31          32          33          34          35          36          37          38          39          40
 IAtWgt=           1           1           1           1          16           1           1          16           1          12
 AtmWgt=   1.0078250   1.0078250   1.0078250   1.0078250  15.9949146   1.0078250   1.0078250  15.9949146   1.0078250  12.0000000
 NucSpn=           1           1           1           1           0           1           1           0           1           0
 AtZEff=  -0.0000000  -0.0000000  -0.0000000  -0.0000000  -0.0000000  -0.0000000  -0.0000000  -0.0000000  -0.0000000  -0.0000000
 NQMom=    0.0000000   0.0000000   0.0000000   0.0000000   0.0000000   0.0000000   0.0000000   0.0000000   0.0000000   0.0000000
 NMagM=    2.7928460   2.7928460   2.7928460   2.7928460   0.0000000   2.7928460   2.7928460   0.0000000   2.7928460   0.0000000
 AtZNuc=   1.0000000   1.0000000   1.0000000   1.0000000   8.0000000   1.0000000   1.0000000   8.0000000   1.0000000   6.0000000

  Atom        41          42          43          44          45          46          47          48          49          50
 IAtWgt=          12          12          12          12          12           1           1           1           1           1
 AtmWgt=  12.0000000  12.0000000  12.0000000  12.0000000  12.0000000   1.0078250   1.0078250   1.0078250   1.0078250   1.0078250
 NucSpn=           0           0           0           0           0           1           1           1           1           1
 AtZEff=  -0.0000000  -0.0000000  -0.0000000  -0.0000000  -0.0000000  -0.0000000  -0.0000000  -0.0000000  -0.0000000  -0.0000000
 NQMom=    0.0000000   0.0000000   0.0000000   0.0000000   0.0000000   0.0000000   0.0000000   0.0000000   0.0000000   0.0000000
 NMagM=    0.0000000   0.0000000   0.0000000   0.0000000   0.0000000   2.7928460   2.7928460   2.7928460   2.7928460   2.7928460
 AtZNuc=   6.0000000   6.0000000   6.0000000   6.0000000   6.0000000   1.0000000   1.0000000   1.0000000   1.0000000   1.0000000

  Atom        51          52
 IAtWgt=          16           1
 AtmWgt=  15.9949146   1.0078250
 NucSpn=           0           1
 AtZEff=  -0.0000000  -0.0000000
 NQMom=    0.0000000   0.0000000
 NMagM=    0.0000000   2.7928460
 AtZNuc=   8.0000000   1.0000000
 Leave Link  101 at Thu Jun 20 17:21:54 2019, MaxMem=   268435456 cpu:               2.5 elap:               0.3
 (Enter /home/apps/g16/g16/l103.exe)

 GradGradGradGradGradGradGradGradGradGradGradGradGradGradGradGradGradGrad
 Berny optimization.
 Initialization pass.
                           ----------------------------
                           !    Initial Parameters    !
                           ! (Angstroms and Degrees)  !
 --------------------------                            --------------------------
 ! Name  Definition              Value          Derivative Info.                !
 --------------------------------------------------------------------------------
 ! R1    R(1,2)                  1.3991         estimate D2E/DX2                !
 ! R2    R(1,6)                  1.3964         estimate D2E/DX2                !
 ! R3    R(1,7)                  1.087          estimate D2E/DX2                !
 ! R4    R(2,3)                  1.3982         estimate D2E/DX2                !
 ! R5    R(2,8)                  1.0864         estimate D2E/DX2                !
 ! R6    R(3,4)                  1.3978         estimate D2E/DX2                !
 ! R7    R(3,9)                  1.087          estimate D2E/DX2                !
 ! R8    R(4,5)                  1.3994         estimate D2E/DX2                !
 ! R9    R(4,11)                 1.0865         estimate D2E/DX2                !
 ! R10   R(5,6)                  1.3992         estimate D2E/DX2                !
 ! R11   R(5,12)                 1.3738         estimate D2E/DX2                !
 ! R12   R(6,10)                 1.0864         estimate D2E/DX2                !
 ! R13   R(12,13)                0.9845         estimate D2E/DX2                !
 ! R14   R(12,39)                1.7876         estimate D2E/DX2                !
 ! R15   R(13,51)                1.7877         estimate D2E/DX2                !
 ! R16   R(14,15)                1.3993         estimate D2E/DX2                !
 ! R17   R(14,19)                1.3959         estimate D2E/DX2                !
 ! R18   R(14,20)                1.087          estimate D2E/DX2                !
 ! R19   R(15,16)                1.3979         estimate D2E/DX2                !
 ! R20   R(15,21)                1.0864         estimate D2E/DX2                !
 ! R21   R(16,17)                1.3981         estimate D2E/DX2                !
 ! R22   R(16,22)                1.087          estimate D2E/DX2                !
 ! R23   R(17,18)                1.3986         estimate D2E/DX2                !
 ! R24   R(17,37)                1.0864         estimate D2E/DX2                !
 ! R25   R(18,19)                1.3986         estimate D2E/DX2                !
 ! R26   R(18,38)                1.3765         estimate D2E/DX2                !
 ! R27   R(19,23)                1.0866         estimate D2E/DX2                !
 ! R28   R(24,25)                1.3995         estimate D2E/DX2                !
 ! R29   R(24,29)                1.3983         estimate D2E/DX2                !
 ! R30   R(24,35)                1.3735         estimate D2E/DX2                !
 ! R31   R(25,26)                1.3979         estimate D2E/DX2                !
 ! R32   R(25,30)                1.087          estimate D2E/DX2                !
 ! R33   R(26,27)                1.3981         estimate D2E/DX2                !
 ! R34   R(26,31)                1.0871         estimate D2E/DX2                !
 ! R35   R(27,28)                1.3994         estimate D2E/DX2                !
 ! R36   R(27,32)                1.0864         estimate D2E/DX2                !
 ! R37   R(28,29)                1.396          estimate D2E/DX2                !
 ! R38   R(28,33)                1.087          estimate D2E/DX2                !
 ! R39   R(29,34)                1.0865         estimate D2E/DX2                !
 ! R40   R(35,36)                0.9867         estimate D2E/DX2                !
 ! R41   R(35,52)                1.7337         estimate D2E/DX2                !
 ! R42   R(36,38)                1.726          estimate D2E/DX2                !
 ! R43   R(38,39)                0.9843         estimate D2E/DX2                !
 ! R44   R(40,41)                1.3991         estimate D2E/DX2                !
 ! R45   R(40,45)                1.3965         estimate D2E/DX2                !
 ! R46   R(40,46)                1.0871         estimate D2E/DX2                !
 ! R47   R(41,42)                1.3984         estimate D2E/DX2                !
 ! R48   R(41,47)                1.0864         estimate D2E/DX2                !
 ! R49   R(42,43)                1.3978         estimate D2E/DX2                !
 ! R50   R(42,48)                1.0871         estimate D2E/DX2                !
 ! R51   R(43,44)                1.4004         estimate D2E/DX2                !
 ! R52   R(43,50)                1.0868         estimate D2E/DX2                !
 ! R53   R(44,45)                1.3991         estimate D2E/DX2                !
 ! R54   R(44,51)                1.3733         estimate D2E/DX2                !
 ! R55   R(45,49)                1.0864         estimate D2E/DX2                !
 ! R56   R(51,52)                0.9861         estimate D2E/DX2                !
 ! A1    A(2,1,6)              120.5136         estimate D2E/DX2                !
 ! A2    A(2,1,7)              120.1145         estimate D2E/DX2                !
 ! A3    A(6,1,7)              119.3715         estimate D2E/DX2                !
 ! A4    A(1,2,3)              119.3736         estimate D2E/DX2                !
 ! A5    A(1,2,8)              120.311          estimate D2E/DX2                !
 ! A6    A(3,2,8)              120.3154         estimate D2E/DX2                !
 ! A7    A(2,3,4)              120.7338         estimate D2E/DX2                !
 ! A8    A(2,3,9)              120.1345         estimate D2E/DX2                !
 ! A9    A(4,3,9)              119.1304         estimate D2E/DX2                !
 ! A10   A(3,4,5)              119.2902         estimate D2E/DX2                !
 ! A11   A(3,4,11)             120.5145         estimate D2E/DX2                !
 ! A12   A(5,4,11)             120.1941         estimate D2E/DX2                !
 ! A13   A(4,5,6)              120.5275         estimate D2E/DX2                !
 ! A14   A(4,5,12)             122.2334         estimate D2E/DX2                !
 ! A15   A(6,5,12)             117.2198         estimate D2E/DX2                !
 ! A16   A(1,6,5)              119.5599         estimate D2E/DX2                !
 ! A17   A(1,6,10)             121.4274         estimate D2E/DX2                !
 ! A18   A(5,6,10)             119.0125         estimate D2E/DX2                !
 ! A19   A(5,12,13)            111.816          estimate D2E/DX2                !
 ! A20   A(5,12,39)            117.4578         estimate D2E/DX2                !
 ! A21   A(13,12,39)           104.4259         estimate D2E/DX2                !
 ! A22   A(12,13,51)           164.8628         estimate D2E/DX2                !
 ! A23   A(15,14,19)           120.5101         estimate D2E/DX2                !
 ! A24   A(15,14,20)           120.1175         estimate D2E/DX2                !
 ! A25   A(19,14,20)           119.3724         estimate D2E/DX2                !
 ! A26   A(14,15,16)           119.3841         estimate D2E/DX2                !
 ! A27   A(14,15,21)           120.2993         estimate D2E/DX2                !
 ! A28   A(16,15,21)           120.3166         estimate D2E/DX2                !
 ! A29   A(15,16,17)           120.7404         estimate D2E/DX2                !
 ! A30   A(15,16,22)           120.1586         estimate D2E/DX2                !
 ! A31   A(17,16,22)           119.1008         estimate D2E/DX2                !
 ! A32   A(16,17,18)           119.2123         estimate D2E/DX2                !
 ! A33   A(16,17,37)           120.4703         estimate D2E/DX2                !
 ! A34   A(18,17,37)           120.3174         estimate D2E/DX2                !
 ! A35   A(17,18,19)           120.6435         estimate D2E/DX2                !
 ! A36   A(17,18,38)           122.2497         estimate D2E/DX2                !
 ! A37   A(19,18,38)           117.1065         estimate D2E/DX2                !
 ! A38   A(14,19,18)           119.5096         estimate D2E/DX2                !
 ! A39   A(14,19,23)           121.2703         estimate D2E/DX2                !
 ! A40   A(18,19,23)           119.2201         estimate D2E/DX2                !
 ! A41   A(25,24,29)           120.6378         estimate D2E/DX2                !
 ! A42   A(25,24,35)           121.7703         estimate D2E/DX2                !
 ! A43   A(29,24,35)           117.5919         estimate D2E/DX2                !
 ! A44   A(24,25,26)           119.2826         estimate D2E/DX2                !
 ! A45   A(24,25,30)           119.8038         estimate D2E/DX2                !
 ! A46   A(26,25,30)           120.9112         estimate D2E/DX2                !
 ! A47   A(25,26,27)           120.6513         estimate D2E/DX2                !
 ! A48   A(25,26,31)           119.2542         estimate D2E/DX2                !
 ! A49   A(27,26,31)           120.094          estimate D2E/DX2                !
 ! A50   A(26,27,28)           119.4091         estimate D2E/DX2                !
 ! A51   A(26,27,32)           120.2959         estimate D2E/DX2                !
 ! A52   A(28,27,32)           120.2949         estimate D2E/DX2                !
 ! A53   A(27,28,29)           120.5673         estimate D2E/DX2                !
 ! A54   A(27,28,33)           120.0656         estimate D2E/DX2                !
 ! A55   A(29,28,33)           119.3671         estimate D2E/DX2                !
 ! A56   A(24,29,28)           119.4513         estimate D2E/DX2                !
 ! A57   A(24,29,34)           119.1602         estimate D2E/DX2                !
 ! A58   A(28,29,34)           121.3884         estimate D2E/DX2                !
 ! A59   A(24,35,36)           111.4014         estimate D2E/DX2                !
 ! A60   A(24,35,52)           123.082          estimate D2E/DX2                !
 ! A61   A(36,35,52)           103.2391         estimate D2E/DX2                !
 ! A62   A(18,38,36)           115.3545         estimate D2E/DX2                !
 ! A63   A(18,38,39)           112.0906         estimate D2E/DX2                !
 ! A64   A(36,38,39)           104.4387         estimate D2E/DX2                !
 ! A65   A(12,39,38)           163.3201         estimate D2E/DX2                !
 ! A66   A(41,40,45)           120.5346         estimate D2E/DX2                !
 ! A67   A(41,40,46)           120.0937         estimate D2E/DX2                !
 ! A68   A(45,40,46)           119.3711         estimate D2E/DX2                !
 ! A69   A(40,41,42)           119.3959         estimate D2E/DX2                !
 ! A70   A(40,41,47)           120.3059         estimate D2E/DX2                !
 ! A71   A(42,41,47)           120.2983         estimate D2E/DX2                !
 ! A72   A(41,42,43)           120.7105         estimate D2E/DX2                !
 ! A73   A(41,42,48)           120.0623         estimate D2E/DX2                !
 ! A74   A(43,42,48)           119.2262         estimate D2E/DX2                !
 ! A75   A(42,43,44)           119.2839         estimate D2E/DX2                !
 ! A76   A(42,43,50)           121.0152         estimate D2E/DX2                !
 ! A77   A(44,43,50)           119.6993         estimate D2E/DX2                !
 ! A78   A(43,44,45)           120.544          estimate D2E/DX2                !
 ! A79   A(43,44,51)           121.9032         estimate D2E/DX2                !
 ! A80   A(45,44,51)           117.5437         estimate D2E/DX2                !
 ! A81   A(40,45,44)           119.5299         estimate D2E/DX2                !
 ! A82   A(40,45,49)           121.4611         estimate D2E/DX2                !
 ! A83   A(44,45,49)           119.0085         estimate D2E/DX2                !
 ! A84   A(13,51,44)           119.3384         estimate D2E/DX2                !
 ! A85   A(13,51,52)           101.4707         estimate D2E/DX2                !
 ! A86   A(44,51,52)           110.6091         estimate D2E/DX2                !
 ! A87   L(35,36,38,11,-1)     168.2003         estimate D2E/DX2                !
 ! A88   L(35,52,51,10,-1)     168.806          estimate D2E/DX2                !
 ! A89   L(35,36,38,11,-2)     183.1512         estimate D2E/DX2                !
 ! A90   L(35,52,51,10,-2)     182.9925         estimate D2E/DX2                !
 ! D1    D(6,1,2,3)              0.1199         estimate D2E/DX2                !
 ! D2    D(6,1,2,8)           -179.8749         estimate D2E/DX2                !
 ! D3    D(7,1,2,3)            179.897          estimate D2E/DX2                !
 ! D4    D(7,1,2,8)             -0.0978         estimate D2E/DX2                !
 ! D5    D(2,1,6,5)             -0.2634         estimate D2E/DX2                !
 ! D6    D(2,1,6,10)           179.5688         estimate D2E/DX2                !
 ! D7    D(7,1,6,5)            179.9578         estimate D2E/DX2                !
 ! D8    D(7,1,6,10)            -0.21           estimate D2E/DX2                !
 ! D9    D(1,2,3,4)              0.2274         estimate D2E/DX2                !
 ! D10   D(1,2,3,9)            179.8123         estimate D2E/DX2                !
 ! D11   D(8,2,3,4)           -179.7778         estimate D2E/DX2                !
 ! D12   D(8,2,3,9)             -0.1929         estimate D2E/DX2                !
 ! D13   D(2,3,4,5)             -0.4243         estimate D2E/DX2                !
 ! D14   D(2,3,4,11)           179.1702         estimate D2E/DX2                !
 ! D15   D(9,3,4,5)            179.9866         estimate D2E/DX2                !
 ! D16   D(9,3,4,11)            -0.4188         estimate D2E/DX2                !
 ! D17   D(3,4,5,6)              0.2779         estimate D2E/DX2                !
 ! D18   D(3,4,5,12)           178.6331         estimate D2E/DX2                !
 ! D19   D(11,4,5,6)          -179.3179         estimate D2E/DX2                !
 ! D20   D(11,4,5,12)           -0.9628         estimate D2E/DX2                !
 ! D21   D(4,5,6,1)              0.0627         estimate D2E/DX2                !
 ! D22   D(4,5,6,10)          -179.7736         estimate D2E/DX2                !
 ! D23   D(12,5,6,1)          -178.3728         estimate D2E/DX2                !
 ! D24   D(12,5,6,10)            1.791          estimate D2E/DX2                !
 ! D25   D(4,5,12,13)           11.1895         estimate D2E/DX2                !
 ! D26   D(4,5,12,39)         -109.5023         estimate D2E/DX2                !
 ! D27   D(6,5,12,13)         -170.4038         estimate D2E/DX2                !
 ! D28   D(6,5,12,39)           68.9045         estimate D2E/DX2                !
 ! D29   D(5,12,13,51)        -149.366          estimate D2E/DX2                !
 ! D30   D(39,12,13,51)        -21.3555         estimate D2E/DX2                !
 ! D31   D(5,12,39,38)         138.3713         estimate D2E/DX2                !
 ! D32   D(13,12,39,38)         13.8919         estimate D2E/DX2                !
 ! D33   D(12,13,51,44)        133.5796         estimate D2E/DX2                !
 ! D34   D(12,13,51,52)         11.84           estimate D2E/DX2                !
 ! D35   D(19,14,15,16)          0.0462         estimate D2E/DX2                !
 ! D36   D(19,14,15,21)       -179.9999         estimate D2E/DX2                !
 ! D37   D(20,14,15,16)       -179.9383         estimate D2E/DX2                !
 ! D38   D(20,14,15,21)          0.0156         estimate D2E/DX2                !
 ! D39   D(15,14,19,18)         -0.0261         estimate D2E/DX2                !
 ! D40   D(15,14,19,23)       -179.978          estimate D2E/DX2                !
 ! D41   D(20,14,19,18)        179.9585         estimate D2E/DX2                !
 ! D42   D(20,14,19,23)          0.0066         estimate D2E/DX2                !
 ! D43   D(14,15,16,17)          0.0052         estimate D2E/DX2                !
 ! D44   D(14,15,16,22)        179.8793         estimate D2E/DX2                !
 ! D45   D(21,15,16,17)       -179.9487         estimate D2E/DX2                !
 ! D46   D(21,15,16,22)         -0.0745         estimate D2E/DX2                !
 ! D47   D(15,16,17,18)         -0.0756         estimate D2E/DX2                !
 ! D48   D(15,16,17,37)        179.8396         estimate D2E/DX2                !
 ! D49   D(22,16,17,18)       -179.9511         estimate D2E/DX2                !
 ! D50   D(22,16,17,37)         -0.0359         estimate D2E/DX2                !
 ! D51   D(16,17,18,19)          0.0961         estimate D2E/DX2                !
 ! D52   D(16,17,18,38)        179.8895         estimate D2E/DX2                !
 ! D53   D(37,17,18,19)       -179.8193         estimate D2E/DX2                !
 ! D54   D(37,17,18,38)         -0.0259         estimate D2E/DX2                !
 ! D55   D(17,18,19,14)         -0.0458         estimate D2E/DX2                !
 ! D56   D(17,18,19,23)        179.9071         estimate D2E/DX2                !
 ! D57   D(38,18,19,14)       -179.8495         estimate D2E/DX2                !
 ! D58   D(38,18,19,23)          0.1034         estimate D2E/DX2                !
 ! D59   D(17,18,38,36)       -123.2434         estimate D2E/DX2                !
 ! D60   D(17,18,38,39)         -3.8957         estimate D2E/DX2                !
 ! D61   D(19,18,38,36)         56.5569         estimate D2E/DX2                !
 ! D62   D(19,18,38,39)        175.9046         estimate D2E/DX2                !
 ! D63   D(29,24,25,26)         -0.251          estimate D2E/DX2                !
 ! D64   D(29,24,25,30)        179.1903         estimate D2E/DX2                !
 ! D65   D(35,24,25,26)        179.6944         estimate D2E/DX2                !
 ! D66   D(35,24,25,30)         -0.8642         estimate D2E/DX2                !
 ! D67   D(25,24,29,28)          0.1014         estimate D2E/DX2                !
 ! D68   D(25,24,29,34)       -179.972          estimate D2E/DX2                !
 ! D69   D(35,24,29,28)       -179.8463         estimate D2E/DX2                !
 ! D70   D(35,24,29,34)          0.0803         estimate D2E/DX2                !
 ! D71   D(25,24,35,36)         -0.6084         estimate D2E/DX2                !
 ! D72   D(25,24,35,52)        122.6819         estimate D2E/DX2                !
 ! D73   D(29,24,35,36)        179.3386         estimate D2E/DX2                !
 ! D74   D(29,24,35,52)        -57.3711         estimate D2E/DX2                !
 ! D75   D(24,25,26,27)          0.1903         estimate D2E/DX2                !
 ! D76   D(24,25,26,31)        179.9561         estimate D2E/DX2                !
 ! D77   D(30,25,26,27)       -179.2446         estimate D2E/DX2                !
 ! D78   D(30,25,26,31)          0.5211         estimate D2E/DX2                !
 ! D79   D(25,26,27,28)          0.0187         estimate D2E/DX2                !
 ! D80   D(25,26,27,32)        179.9114         estimate D2E/DX2                !
 ! D81   D(31,26,27,28)       -179.7451         estimate D2E/DX2                !
 ! D82   D(31,26,27,32)          0.1477         estimate D2E/DX2                !
 ! D83   D(26,27,28,29)         -0.1714         estimate D2E/DX2                !
 ! D84   D(26,27,28,33)        179.8957         estimate D2E/DX2                !
 ! D85   D(32,27,28,29)        179.9359         estimate D2E/DX2                !
 ! D86   D(32,27,28,33)          0.0029         estimate D2E/DX2                !
 ! D87   D(27,28,29,24)          0.1118         estimate D2E/DX2                !
 ! D88   D(27,28,29,34)       -179.8131         estimate D2E/DX2                !
 ! D89   D(33,28,29,24)       -179.9548         estimate D2E/DX2                !
 ! D90   D(33,28,29,34)          0.1203         estimate D2E/DX2                !
 ! D91   D(24,35,38,18)       -111.7287         estimate D2E/DX2                !
 ! D92   D(24,35,38,39)        127.0331         estimate D2E/DX2                !
 ! D93   D(52,35,38,18)        116.3706         estimate D2E/DX2                !
 ! D94   D(52,35,38,39)         -4.8677         estimate D2E/DX2                !
 ! D95   D(24,35,51,13)       -120.9471         estimate D2E/DX2                !
 ! D96   D(24,35,51,44)        114.4299         estimate D2E/DX2                !
 ! D97   D(36,35,51,13)          4.0751         estimate D2E/DX2                !
 ! D98   D(36,35,51,44)       -120.5479         estimate D2E/DX2                !
 ! D99   D(18,38,39,12)       -128.7936         estimate D2E/DX2                !
 ! D100  D(36,38,39,12)         -3.2221         estimate D2E/DX2                !
 ! D101  D(45,40,41,42)          0.1037         estimate D2E/DX2                !
 ! D102  D(45,40,41,47)       -179.8627         estimate D2E/DX2                !
 ! D103  D(46,40,41,42)        179.8336         estimate D2E/DX2                !
 ! D104  D(46,40,41,47)         -0.1328         estimate D2E/DX2                !
 ! D105  D(41,40,45,44)         -0.2747         estimate D2E/DX2                !
 ! D106  D(41,40,45,49)        179.469          estimate D2E/DX2                !
 ! D107  D(46,40,45,44)        179.9934         estimate D2E/DX2                !
 ! D108  D(46,40,45,49)         -0.2629         estimate D2E/DX2                !
 ! D109  D(40,41,42,43)          0.2185         estimate D2E/DX2                !
 ! D110  D(40,41,42,48)        179.8463         estimate D2E/DX2                !
 ! D111  D(47,41,42,43)       -179.8151         estimate D2E/DX2                !
 ! D112  D(47,41,42,48)         -0.1873         estimate D2E/DX2                !
 ! D113  D(41,42,43,44)         -0.3632         estimate D2E/DX2                !
 ! D114  D(41,42,43,50)        179.1838         estimate D2E/DX2                !
 ! D115  D(48,42,43,44)       -179.994          estimate D2E/DX2                !
 ! D116  D(48,42,43,50)         -0.4471         estimate D2E/DX2                !
 ! D117  D(42,43,44,45)          0.1889         estimate D2E/DX2                !
 ! D118  D(42,43,44,51)        179.0607         estimate D2E/DX2                !
 ! D119  D(50,43,44,45)       -179.3641         estimate D2E/DX2                !
 ! D120  D(50,43,44,51)         -0.4923         estimate D2E/DX2                !
 ! D121  D(43,44,45,40)          0.1271         estimate D2E/DX2                !
 ! D122  D(43,44,45,49)       -179.6229         estimate D2E/DX2                !
 ! D123  D(51,44,45,40)       -178.7927         estimate D2E/DX2                !
 ! D124  D(51,44,45,49)          1.4573         estimate D2E/DX2                !
 ! D125  D(43,44,51,13)       -106.5101         estimate D2E/DX2                !
 ! D126  D(43,44,51,52)         10.5606         estimate D2E/DX2                !
 ! D127  D(45,44,51,13)         72.3941         estimate D2E/DX2                !
 ! D128  D(45,44,51,52)       -170.5353         estimate D2E/DX2                !
 --------------------------------------------------------------------------------
 Trust Radius=3.00D-01 FncErr=1.00D-07 GrdErr=1.00D-06 EigMax=2.50D+02 EigMin=1.00D-04
 Number of steps in this run=    284 maximum allowed number of steps=    312.
 GradGradGradGradGradGradGradGradGradGradGradGradGradGradGradGradGradGrad

 Leave Link  103 at Thu Jun 20 17:21:54 2019, MaxMem=   268435456 cpu:               0.1 elap:               0.1
 (Enter /home/apps/g16/g16/l202.exe)
 Stoichiometry    C24H24O4
 Framework group  C1[X(C24H24O4)]
 Deg. of freedom   150
 Full point group                 C1      NOp   1
 Largest Abelian subgroup         C1      NOp   1
 Largest concise Abelian subgroup C1      NOp   1
                         Standard orientation:                         
 ---------------------------------------------------------------------
 Center     Atomic      Atomic             Coordinates (Angstroms)
 Number     Number       Type             X           Y           Z
 ---------------------------------------------------------------------
      1          6           0        4.720930   -1.343129   -1.816611
      2          6           0        5.366750   -0.429599   -0.976381
      3          6           0        4.631260    0.610371   -0.399721
      4          6           0        3.262380    0.741721   -0.650411
      5          6           0        2.630020   -0.176600   -1.496061
      6          6           0        3.355470   -1.219929   -2.081671
      7          1           0        5.281411   -2.155229   -2.272641
      8          1           0        6.429630   -0.527369   -0.774031
      9          1           0        5.119870    1.325271    0.257389
     10          1           0        2.840530   -1.916690   -2.737201
     11          1           0        2.691570    1.543310   -0.189761
     12          8           0        1.283350   -0.120860   -1.762171
     13          1           0        0.881310    0.718370   -1.440721
     14          6           0       -0.638579   -4.189880    2.193899
     15          6           0        0.715131   -4.352090    2.508719
     16          6           0        1.680071   -3.676430    1.756139
     17          6           0        1.306311   -2.844000    0.696899
     18          6           0       -0.050589   -2.693080    0.393359
     19          6           0       -1.026549   -3.362860    1.138419
     20          1           0       -1.398969   -4.708820    2.771899
     21          1           0        1.013241   -4.996590    3.330899
     22          1           0        2.735101   -3.791780    1.990979
     23          1           0       -2.074129   -3.227701    0.883449
     24          6           0       -3.393660    0.128859   -0.372151
     25          6           0       -3.918610   -0.996501   -1.017541
     26          6           0       -5.262190   -0.998721   -1.403461
     27          6           0       -6.077230    0.109469   -1.154051
     28          6           0       -5.536930    1.229169   -0.511751
     29          6           0       -4.197710    1.244259   -0.117861
     30          1           0       -3.277980   -1.850991   -1.220231
     31          1           0       -5.669290   -1.872821   -1.905391
     32          1           0       -7.120250    0.102088   -1.457741
     33          1           0       -6.160550    2.097289   -0.314051
     34          1           0       -3.765210    2.105239    0.384369
     35          8           0       -2.082900    0.183529    0.034469
     36          1           0       -1.604210   -0.652100   -0.180161
     37          1           0        2.059801   -2.318930    0.116529
     38          8           0       -0.488350   -1.888190   -0.633871
     39          1           0        0.251790   -1.404120   -1.066021
     40          6           0        1.625019    4.661470    0.821299
     41          6           0        1.191239    4.549500    2.146749
     42          6           0        0.261179    3.560920    2.483419
     43          6           0       -0.232770    2.685170    1.512449
     44          6           0        0.207800    2.810620    0.189139
     45          6           0        1.135269    3.797890   -0.160891
     46          1           0        2.345649    5.427560    0.546489
     47          1           0        1.572999    5.224700    2.907399
     48          1           0       -0.081391    3.462630    3.510409
     49          1           0        1.455259    3.876850   -1.196081
     50          1           0       -0.945680    1.906730    1.771099
     51          8           0       -0.227510    1.967580   -0.803751
     52          1           0       -0.981300    1.417050   -0.485901
 ---------------------------------------------------------------------
 Rotational constants (GHZ):           0.1650124           0.1225211           0.0871268
 Leave Link  202 at Thu Jun 20 17:21:55 2019, MaxMem=   268435456 cpu:               0.0 elap:               0.0
 (Enter /home/apps/g16/g16/l301.exe)
 General basis read from cards:  (5D, 7F)
 Centers:       7      8      9     10     11     13     20     21     22     23
 Centers:      30     31     32     33     34     36     37     39     46     47
 Centers:      48     49     50     52
 6-31G
 P 1 1.00 0.000000000000
     Exponent=  7.5000000000D-01 Coefficients=  1.0000000000D+00
 ****
 Centers:       1      2      3      4      5      6     14     15     16     17
 Centers:      18     19     24     25     26     27     28     29     40     41
 Centers:      42     43     44     45
 6-31G
 S 1 1.00 0.000000000000
     Exponent=  7.5000000000D+00 Coefficients=  1.0000000000D+00
 P 1 1.00 0.000000000000
     Exponent=  5.0000000000D-02 Coefficients=  1.0000000000D+00
 D 1 1.00 0.000000000000
     Exponent=  8.2000000000D-01 Coefficients=  1.0000000000D+00
 ****
 Centers:      12     35     38     51
 6-31G
 S 1 1.00
     Exponent=  1.5100000000D+01 Coefficients=  1.0000000000D+00
 P 1 1.00 0.000000000000
     Exponent=  6.5000000000D-02 Coefficients=  1.0000000000D+00
 D 1 1.00 0.000000000000
     Exponent=  1.1900000000D+00 Coefficients=  1.0000000000D+00
 D 1 1.00 0.000000000000
     Exponent=  1.8000000000D-01 Coefficients=  1.0000000000D+00
 ****
 Ernie: Thresh=  0.10000D-02 Tol=  0.10000D-05 Strict=F.
 There are   676 symmetry adapted cartesian basis functions of A   symmetry.
 There are   644 symmetry adapted basis functions of A   symmetry.
   644 basis functions,  1088 primitive gaussians,   676 cartesian basis functions
   100 alpha electrons      100 beta electrons
       nuclear repulsion energy      2433.4388310209 Hartrees.
 IExCor=  402 DFT=T Ex+Corr=B3LYP ExCW=0 ScaHFX=  0.200000
 ScaDFX=  0.800000  0.720000  1.000000  0.810000 ScalE2=  1.000000  1.000000
 IRadAn=      5 IRanWt=     -1 IRanGd=            0 ICorTp=0 IEmpDi=131
 NAtoms=   52 NActive=   52 NUniq=   52 SFac= 1.00D+00 NAtFMM=   60 NAOKFM=F Big=F
 Integral buffers will be    131072 words long.
 Raffenetti 2 integral format.
 Two-electron integral symmetry is turned on.
 R6Disp:  Grimme-D3 Dispersion energy=       -0.0485572429 Hartrees.
 Nuclear repulsion after empirical dispersion term =     2433.3902737780 Hartrees.
 ------------------------------------------------------------------------------
 Polarizable Continuum Model (PCM)
 =================================
 Model                : PCM.
 Atomic radii         : UFF (Universal Force Field).
 Polarization charges : Total charges.
 Charge compensation  : None.
 Solution method      : On-the-fly selection.
 Cavity type          : Scaled VdW (van der Waals Surface) (Alpha=1.100).
 Cavity algorithm     : GePol (No added spheres)
                        Default sphere list used, NSphG=   52.
                        Lebedev-Laikov grids with approx.  5.0 points / Ang**2.
                        Smoothing algorithm: York/Karplus (Gamma=1.0000).
                        Polarization charges: spherical gaussians, with
                                              point-specific exponents (IZeta= 3).
                        Self-potential: point-specific (ISelfS= 7).
                        Self-field    : sphere-specific E.n sum rule (ISelfD= 2).
 1st derivatives      : Analytical E(r).r(x)/FMM algorithm (CHGder, D1EAlg=3).
                        Cavity 1st derivative terms included.
 Solvent              : CarbonTetraChloride, Eps=   2.228000 Eps(inf)=   2.131892
 ------------------------------------------------------------------------------
 GePol: Number of generator spheres                  =      52
 GePol: Total number of spheres                      =      52
 GePol: Number of exposed spheres                    =      52 (100.00%)
 GePol: Number of points                             =    4054
 GePol: Average weight of points                     =       0.12
 GePol: Minimum weight of points                     =   0.11D-11
 GePol: Maximum weight of points                     =    0.20577
 GePol: Number of points with low weight             =     317
 GePol: Fraction of low-weight points (<1% of avg)   =       7.82%
 GePol: Cavity surface area                          =    504.600 Ang**2
 GePol: Cavity volume                                =    550.048 Ang**3
 Leave Link  301 at Thu Jun 20 17:21:55 2019, MaxMem=   268435456 cpu:               1.1 elap:               0.2
 (Enter /home/apps/g16/g16/l302.exe)
 NPDir=0 NMtPBC=     1 NCelOv=     1 NCel=       1 NClECP=     1 NCelD=      1
         NCelK=      1 NCelE2=     1 NClLst=     1 CellRange=     0.0.
 One-electron integrals computed using PRISM.
 One-electron integral symmetry used in STVInt
 NBasis=   644 RedAO= T EigKep=  1.73D-05  NBF=   644
 NBsUse=   644 1.00D-06 EigRej= -1.00D+00 NBFU=   644
 Precomputing XC quadrature grid using
 IXCGrd= 4 IRadAn=           5 IRanWt=          -1 IRanGd=           0 AccXCQ= 0.00D+00.
 Generated NRdTot=       0 NPtTot=           0 NUsed=           0 NTot=          32
 NSgBfM=   656   656   656   656   656 MxSgAt=    52 MxSgA2=    52.
 Leave Link  302 at Thu Jun 20 17:21:58 2019, MaxMem=   268435456 cpu:              18.2 elap:               2.3
 (Enter /home/apps/g16/g16/l303.exe)
 DipDrv:  MaxL=1.
 Leave Link  303 at Thu Jun 20 17:21:58 2019, MaxMem=   268435456 cpu:               1.2 elap:               0.2
 (Enter /home/apps/g16/g16/l401.exe)
 ExpMin= 5.00D-02 ExpMax= 5.48D+03 ExpMxC= 8.25D+02 IAcc=3 IRadAn=         5 AccDes= 0.00D+00
 Harris functional with IExCor=  402 and IRadAn=       5 diagonalized for initial guess.
 HarFok:  IExCor=  402 AccDes= 0.00D+00 IRadAn=         5 IDoV= 1 UseB2=F ITyADJ=14
 ICtDFT=  3500011 ScaDFX=  1.000000  1.000000  1.000000  1.000000
 FoFCou: FMM=F IPFlag=           0 FMFlag=      100000 FMFlg1=           0
         NFxFlg=           0 DoJE=T BraDBF=F KetDBF=T FulRan=T
         wScrn=  0.000000 ICntrl=       500 IOpCl=  0 I1Cent=   200000004 NGrid=           0
         NMat0=    1 NMatS0=      1 NMatT0=    0 NMatD0=    1 NMtDS0=    0 NMtDT0=    0
 Petite list used in FoFCou.
 Harris En= -1230.07266344483    
 JPrj=0 DoOrth=F DoCkMO=F.
 Leave Link  401 at Thu Jun 20 17:22:13 2019, MaxMem=   268435456 cpu:             110.5 elap:              13.8
 (Enter /home/apps/g16/g16/l502.exe)
 Integral symmetry usage will be decided dynamically.
 Closed shell SCF:
 Using DIIS extrapolation, IDIIS=  1040.
 NGot=   268435456 LenX=   267509472 LenY=   267051820
 Requested convergence on RMS density matrix=1.00D-08 within 128 cycles.
 Requested convergence on MAX density matrix=1.00D-06.
 Requested convergence on             energy=1.00D-06.
 No special actions if energy rises.
 Fock matrices will be formed incrementally for  20 cycles.

 Cycle   1  Pass 1  IDiag  1:
 FoFJK:  IHMeth= 1 ICntrl=       0 DoSepK=F KAlg= 0 I1Cent=           0 FoldK=F
 IRaf= 690000000 NMat=       1 IRICut=       1 DoRegI=T DoRafI=F ISym2E= 0 IDoP0=0 IntGTp=1.
 FoFCou: FMM=F IPFlag=           0 FMFlag=      100000 FMFlg1=           0
         NFxFlg=           0 DoJE=F BraDBF=F KetDBF=F FulRan=T
         wScrn=  0.000000 ICntrl=         0 IOpCl=  0 I1Cent=           0 NGrid=           0
         NMat0=    1 NMatS0=      1 NMatT0=    0 NMatD0=    1 NMtDS0=    0 NMtDT0=    0
 Symmetry not used in FoFCou.
 Inv3:  Mode=1 IEnd=    49304748.
 Iteration    1 A*A^-1 deviation from unit magnitude is 8.22D-15 for    256.
 Iteration    1 A*A^-1 deviation from orthogonality  is 3.48D-15 for   3142   1017.
 Iteration    1 A^-1*A deviation from unit magnitude is 7.55D-15 for    256.
 Iteration    1 A^-1*A deviation from orthogonality  is 2.29D-15 for   2342   2022.
 E= -1229.40904443043    
 DIIS: error= 1.47D-02 at cycle   1 NSaved=   1.
 NSaved= 1 IEnMin= 1 EnMin= -1229.40904443043     IErMin= 1 ErrMin= 1.47D-02
 ErrMax= 1.47D-02  0.00D+00 EMaxC= 1.00D-01 BMatC= 6.01D-01 BMatP= 6.01D-01
 IDIUse=3 WtCom= 8.53D-01 WtEn= 1.47D-01
 Coeff-Com:  0.100D+01
 Coeff-En:   0.100D+01
 Coeff:      0.100D+01
 Gap=     0.228 Goal=   None    Shift=    0.000
 GapD=    0.228 DampG=1.000 DampE=0.500 DampFc=0.5000 IDamp=-1.
 Damping current iteration by 5.00D-01
 RMSDP=3.52D-03 MaxDP=1.37D-01              OVMax= 2.13D-01

 Cycle   2  Pass 1  IDiag  1:
 RMSU=  1.74D-03    CP:  9.80D-01
 E= -1229.69152417557     Delta-E=       -0.282479745134 Rises=F Damp=T
 DIIS: error= 2.93D-03 at cycle   2 NSaved=   2.
 NSaved= 2 IEnMin= 2 EnMin= -1229.69152417557     IErMin= 2 ErrMin= 2.93D-03
 ErrMax= 2.93D-03  0.00D+00 EMaxC= 1.00D-01 BMatC= 3.08D-02 BMatP= 6.01D-01
 IDIUse=3 WtCom= 9.71D-01 WtEn= 2.93D-02
 Coeff-Com:  0.556D-01 0.944D+00
 Coeff-En:   0.115D+00 0.885D+00
 Coeff:      0.574D-01 0.943D+00
 Gap=     0.257 Goal=   None    Shift=    0.000
 RMSDP=1.23D-03 MaxDP=5.99D-02 DE=-2.82D-01 OVMax= 1.52D-01

 Cycle   3  Pass 1  IDiag  1:
 RMSU=  1.06D-03    CP:  9.65D-01  6.52D-01
 E= -1230.02978450055     Delta-E=       -0.338260324982 Rises=F Damp=F
 DIIS: error= 3.16D-03 at cycle   3 NSaved=   3.
 NSaved= 3 IEnMin= 3 EnMin= -1230.02978450055     IErMin= 2 ErrMin= 2.93D-03
 ErrMax= 3.16D-03  0.00D+00 EMaxC= 1.00D-01 BMatC= 2.33D-02 BMatP= 3.08D-02
 IDIUse=3 WtCom= 9.68D-01 WtEn= 3.16D-02
 Coeff-Com: -0.156D-01 0.459D+00 0.557D+00
 Coeff-En:   0.000D+00 0.000D+00 0.100D+01
 Coeff:     -0.151D-01 0.444D+00 0.571D+00
 Gap=     0.212 Goal=   None    Shift=    0.000
 RMSDP=4.36D-04 MaxDP=2.03D-02 DE=-3.38D-01 OVMax= 5.74D-02

 Cycle   4  Pass 1  IDiag  1:
 RMSU=  3.50D-04    CP:  9.66D-01  7.36D-01  7.97D-01
 E= -1230.04770888556     Delta-E=       -0.017924385015 Rises=F Damp=F
 DIIS: error= 1.87D-03 at cycle   4 NSaved=   4.
 NSaved= 4 IEnMin= 4 EnMin= -1230.04770888556     IErMin= 4 ErrMin= 1.87D-03
 ErrMax= 1.87D-03  0.00D+00 EMaxC= 1.00D-01 BMatC= 7.60D-03 BMatP= 2.33D-02
 IDIUse=3 WtCom= 9.81D-01 WtEn= 1.87D-02
 Coeff-Com: -0.220D-01 0.127D+00 0.378D+00 0.517D+00
 Coeff-En:   0.000D+00 0.000D+00 0.279D+00 0.721D+00
 Coeff:     -0.216D-01 0.124D+00 0.376D+00 0.521D+00
 Gap=     0.209 Goal=   None    Shift=    0.000
 RMSDP=1.83D-04 MaxDP=5.92D-03 DE=-1.79D-02 OVMax= 2.14D-02

 Cycle   5  Pass 1  IDiag  1:
 RMSU=  8.72D-05    CP:  9.66D-01  7.44D-01  8.10D-01  5.45D-01
 E= -1230.05633713541     Delta-E=       -0.008628249846 Rises=F Damp=F
 DIIS: error= 1.66D-04 at cycle   5 NSaved=   5.
 NSaved= 5 IEnMin= 5 EnMin= -1230.05633713541     IErMin= 5 ErrMin= 1.66D-04
 ErrMax= 1.66D-04  0.00D+00 EMaxC= 1.00D-01 BMatC= 8.27D-05 BMatP= 7.60D-03
 IDIUse=3 WtCom= 9.98D-01 WtEn= 1.66D-03
 Coeff-Com: -0.675D-02 0.123D-01 0.780D-01 0.162D+00 0.755D+00
 Coeff-En:   0.000D+00 0.000D+00 0.000D+00 0.000D+00 0.100D+01
 Coeff:     -0.673D-02 0.123D-01 0.779D-01 0.162D+00 0.755D+00
 Gap=     0.209 Goal=   None    Shift=    0.000
 RMSDP=2.24D-05 MaxDP=1.04D-03 DE=-8.63D-03 OVMax= 2.36D-03

 Cycle   6  Pass 1  IDiag  1:
 RMSU=  1.60D-05    CP:  9.66D-01  7.47D-01  8.13D-01  5.74D-01  8.89D-01
 E= -1230.05641200489     Delta-E=       -0.000074869484 Rises=F Damp=F
 DIIS: error= 7.72D-05 at cycle   6 NSaved=   6.
 NSaved= 6 IEnMin= 6 EnMin= -1230.05641200489     IErMin= 6 ErrMin= 7.72D-05
 ErrMax= 7.72D-05  0.00D+00 EMaxC= 1.00D-01 BMatC= 1.61D-05 BMatP= 8.27D-05
 IDIUse=1 WtCom= 1.00D+00 WtEn= 0.00D+00
 Coeff-Com: -0.315D-02 0.333D-02 0.318D-01 0.728D-01 0.419D+00 0.476D+00
 Coeff:     -0.315D-02 0.333D-02 0.318D-01 0.728D-01 0.419D+00 0.476D+00
 Gap=     0.209 Goal=   None    Shift=    0.000
 RMSDP=7.74D-06 MaxDP=4.81D-04 DE=-7.49D-05 OVMax= 6.45D-04

 Cycle   7  Pass 1  IDiag  1:
 RMSU=  4.61D-06    CP:  9.66D-01  7.46D-01  8.15D-01  5.73D-01  8.73D-01
                    CP:  6.77D-01
 E= -1230.05642716568     Delta-E=       -0.000015160790 Rises=F Damp=F
 DIIS: error= 1.07D-05 at cycle   7 NSaved=   7.
 NSaved= 7 IEnMin= 7 EnMin= -1230.05642716568     IErMin= 7 ErrMin= 1.07D-05
 ErrMax= 1.07D-05  0.00D+00 EMaxC= 1.00D-01 BMatC= 2.85D-07 BMatP= 1.61D-05
 IDIUse=1 WtCom= 1.00D+00 WtEn= 0.00D+00
 Coeff-Com: -0.488D-03-0.730D-04 0.457D-02 0.117D-01 0.831D-01 0.158D+00
 Coeff-Com:  0.743D+00
 Coeff:     -0.488D-03-0.730D-04 0.457D-02 0.117D-01 0.831D-01 0.158D+00
 Coeff:      0.743D+00
 Gap=     0.209 Goal=   None    Shift=    0.000
 RMSDP=1.39D-06 MaxDP=9.52D-05 DE=-1.52D-05 OVMax= 2.34D-04

 Cycle   8  Pass 1  IDiag  1:
 RMSU=  1.18D-06    CP:  9.66D-01  7.46D-01  8.15D-01  5.73D-01  8.77D-01
                    CP:  7.07D-01  9.13D-01
 E= -1230.05642733479     Delta-E=       -0.000000169109 Rises=F Damp=F
 DIIS: error= 8.66D-06 at cycle   8 NSaved=   8.
 NSaved= 8 IEnMin= 8 EnMin= -1230.05642733479     IErMin= 8 ErrMin= 8.66D-06
 ErrMax= 8.66D-06  0.00D+00 EMaxC= 1.00D-01 BMatC= 1.05D-07 BMatP= 2.85D-07
 IDIUse=1 WtCom= 1.00D+00 WtEn= 0.00D+00
 Coeff-Com: -0.933D-04-0.282D-03 0.755D-03 0.254D-02 0.247D-01 0.673D-01
 Coeff-Com:  0.455D+00 0.450D+00
 Coeff:     -0.933D-04-0.282D-03 0.755D-03 0.254D-02 0.247D-01 0.673D-01
 Coeff:      0.455D+00 0.450D+00
 Gap=     0.209 Goal=   None    Shift=    0.000
 RMSDP=6.28D-07 MaxDP=4.02D-05 DE=-1.69D-07 OVMax= 1.24D-04

 Cycle   9  Pass 1  IDiag  1:
 RMSU=  3.48D-07    CP:  9.66D-01  7.46D-01  8.15D-01  5.73D-01  8.78D-01
                    CP:  7.04D-01  9.42D-01  5.75D-01
 E= -1230.05642744205     Delta-E=       -0.000000107261 Rises=F Damp=F
 DIIS: error= 1.44D-06 at cycle   9 NSaved=   9.
 NSaved= 9 IEnMin= 9 EnMin= -1230.05642744205     IErMin= 9 ErrMin= 1.44D-06
 ErrMax= 1.44D-06  0.00D+00 EMaxC= 1.00D-01 BMatC= 3.82D-09 BMatP= 1.05D-07
 IDIUse=1 WtCom= 1.00D+00 WtEn= 0.00D+00
 Coeff-Com:  0.247D-04-0.955D-04-0.246D-03-0.428D-03-0.209D-03 0.806D-02
 Coeff-Com:  0.906D-01 0.192D+00 0.710D+00
 Coeff:      0.247D-04-0.955D-04-0.246D-03-0.428D-03-0.209D-03 0.806D-02
 Coeff:      0.906D-01 0.192D+00 0.710D+00
 Gap=     0.209 Goal=   None    Shift=    0.000
 RMSDP=1.53D-07 MaxDP=8.01D-06 DE=-1.07D-07 OVMax= 1.99D-05

 Cycle  10  Pass 1  IDiag  1:
 RMSU=  9.34D-08    CP:  9.66D-01  7.46D-01  8.15D-01  5.73D-01  8.77D-01
                    CP:  7.06D-01  9.50D-01  6.38D-01  8.03D-01
 E= -1230.05642744600     Delta-E=       -0.000000003950 Rises=F Damp=F
 DIIS: error= 4.02D-07 at cycle  10 NSaved=  10.
 NSaved=10 IEnMin=10 EnMin= -1230.05642744600     IErMin=10 ErrMin= 4.02D-07
 ErrMax= 4.02D-07  0.00D+00 EMaxC= 1.00D-01 BMatC= 2.89D-10 BMatP= 3.82D-09
 IDIUse=1 WtCom= 1.00D+00 WtEn= 0.00D+00
 Coeff-Com:  0.136D-04-0.259D-04-0.116D-03-0.278D-03-0.964D-03 0.862D-03
 Coeff-Com:  0.172D-01 0.583D-01 0.309D+00 0.616D+00
 Coeff:      0.136D-04-0.259D-04-0.116D-03-0.278D-03-0.964D-03 0.862D-03
 Coeff:      0.172D-01 0.583D-01 0.309D+00 0.616D+00
 Gap=     0.209 Goal=   None    Shift=    0.000
 RMSDP=4.37D-08 MaxDP=2.26D-06 DE=-3.95D-09 OVMax= 6.09D-06

 Cycle  11  Pass 1  IDiag  1:
 RMSU=  3.39D-08    CP:  9.66D-01  7.46D-01  8.15D-01  5.73D-01  8.77D-01
                    CP:  7.06D-01  9.51D-01  6.38D-01  8.41D-01  7.95D-01
 E= -1230.05642744632     Delta-E=       -0.000000000315 Rises=F Damp=F
 DIIS: error= 1.46D-07 at cycle  11 NSaved=  11.
 NSaved=11 IEnMin=11 EnMin= -1230.05642744632     IErMin=11 ErrMin= 1.46D-07
 ErrMax= 1.46D-07  0.00D+00 EMaxC= 1.00D-01 BMatC= 7.14D-11 BMatP= 2.89D-10
 IDIUse=1 WtCom= 1.00D+00 WtEn= 0.00D+00
 Coeff-Com:  0.518D-05-0.205D-05-0.382D-04-0.124D-03-0.647D-03-0.813D-03
 Coeff-Com: -0.463D-02 0.408D-02 0.779D-01 0.373D+00 0.552D+00
 Coeff:      0.518D-05-0.205D-05-0.382D-04-0.124D-03-0.647D-03-0.813D-03
 Coeff:     -0.463D-02 0.408D-02 0.779D-01 0.373D+00 0.552D+00
 Gap=     0.209 Goal=   None    Shift=    0.000
 RMSDP=1.63D-08 MaxDP=7.08D-07 DE=-3.15D-10 OVMax= 1.98D-06

 Cycle  12  Pass 1  IDiag  1:
 RMSU=  1.01D-08    CP:  9.66D-01  7.46D-01  8.15D-01  5.73D-01  8.77D-01
                    CP:  7.06D-01  9.51D-01  6.40D-01  8.49D-01  8.47D-01
                    CP:  7.38D-01
 E= -1230.05642744629     Delta-E=        0.000000000032 Rises=F Damp=F
 DIIS: error= 2.61D-08 at cycle  12 NSaved=  12.
 NSaved=12 IEnMin=11 EnMin= -1230.05642744632     IErMin=12 ErrMin= 2.61D-08
 ErrMax= 2.61D-08  0.00D+00 EMaxC= 1.00D-01 BMatC= 2.81D-12 BMatP= 7.14D-11
 IDIUse=1 WtCom= 1.00D+00 WtEn= 0.00D+00
 Coeff-Com:  0.155D-05 0.618D-06-0.955D-05-0.389D-04-0.240D-03-0.422D-03
 Coeff-Com: -0.344D-02-0.263D-02 0.140D-01 0.135D+00 0.246D+00 0.612D+00
 Coeff:      0.155D-05 0.618D-06-0.955D-05-0.389D-04-0.240D-03-0.422D-03
 Coeff:     -0.344D-02-0.263D-02 0.140D-01 0.135D+00 0.246D+00 0.612D+00
 Gap=     0.209 Goal=   None    Shift=    0.000
 RMSDP=4.40D-09 MaxDP=2.20D-07 DE= 3.18D-11 OVMax= 5.21D-07

 Error on total polarization charges =  0.02023
 SCF Done:  E(RB3LYP) =  -1230.05642745     A.U. after   12 cycles
            NFock= 12  Conv=0.44D-08     -V/T= 2.0047
 KE= 1.224352858492D+03 PE=-7.731066057410D+03 EE= 2.843266497694D+03
 Leave Link  502 at Thu Jun 20 17:49:21 2019, MaxMem=   268435456 cpu:           12986.6 elap:            1628.0
 (Enter /home/apps/g16/g16/l601.exe)
 Copying SCF densities to generalized density rwf, IOpCl= 0 IROHF=0.

 **********************************************************************

            Population analysis using the SCF density.

 **********************************************************************

 Orbital symmetries:
       Occupied  (A) (A) (A) (A) (A) (A) (A) (A) (A) (A) (A) (A)
                 (A) (A) (A) (A) (A) (A) (A) (A) (A) (A) (A) (A)
                 (A) (A) (A) (A) (A) (A) (A) (A) (A) (A) (A) (A)
                 (A) (A) (A) (A) (A) (A) (A) (A) (A) (A) (A) (A)
                 (A) (A) (A) (A) (A) (A) (A) (A) (A) (A) (A) (A)
                 (A) (A) (A) (A) (A) (A) (A) (A) (A) (A) (A) (A)
                 (A) (A) (A) (A) (A) (A) (A) (A) (A) (A) (A) (A)
                 (A) (A) (A) (A) (A) (A) (A) (A) (A) (A) (A) (A)
                 (A) (A) (A) (A)
       Virtual   (A) (A) (A) (A) (A) (A) (A) (A) (A) (A) (A) (A)
                 (A) (A) (A) (A) (A) (A) (A) (A) (A) (A) (A) (A)
                 (A) (A) (A) (A) (A) (A) (A) (A) (A) (A) (A) (A)
                 (A) (A) (A) (A) (A) (A) (A) (A) (A) (A) (A) (A)
                 (A) (A) (A) (A) (A) (A) (A) (A) (A) (A) (A) (A)
                 (A) (A) (A) (A) (A) (A) (A) (A) (A) (A) (A) (A)
                 (A) (A) (A) (A) (A) (A) (A) (A) (A) (A) (A) (A)
                 (A) (A) (A) (A) (A) (A) (A) (A) (A) (A) (A) (A)
                 (A) (A) (A) (A) (A) (A) (A) (A) (A) (A) (A) (A)
                 (A) (A) (A) (A) (A) (A) (A) (A) (A) (A) (A) (A)
                 (A) (A) (A) (A) (A) (A) (A) (A) (A) (A) (A) (A)
                 (A) (A) (A) (A) (A) (A) (A) (A) (A) (A) (A) (A)
                 (A) (A) (A) (A) (A) (A) (A) (A) (A) (A) (A) (A)
                 (A) (A) (A) (A) (A) (A) (A) (A) (A) (A) (A) (A)
                 (A) (A) (A) (A) (A) (A) (A) (A) (A) (A) (A) (A)
                 (A) (A) (A) (A) (A) (A) (A) (A) (A) (A) (A) (A)
                 (A) (A) (A) (A) (A) (A) (A) (A) (A) (A) (A) (A)
                 (A) (A) (A) (A) (A) (A) (A) (A) (A) (A) (A) (A)
                 (A) (A) (A) (A) (A) (A) (A) (A) (A) (A) (A) (A)
                 (A) (A) (A) (A) (A) (A) (A) (A) (A) (A) (A) (A)
                 (A) (A) (A) (A) (A) (A) (A) (A) (A) (A) (A) (A)
                 (A) (A) (A) (A) (A) (A) (A) (A) (A) (A) (A) (A)
                 (A) (A) (A) (A) (A) (A) (A) (A) (A) (A) (A) (A)
                 (A) (A) (A) (A) (A) (A) (A) (A) (A) (A) (A) (A)
                 (A) (A) (A) (A) (A) (A) (A) (A) (A) (A) (A) (A)
                 (A) (A) (A) (A) (A) (A) (A) (A) (A) (A) (A) (A)
                 (A) (A) (A) (A) (A) (A) (A) (A) (A) (A) (A) (A)
                 (A) (A) (A) (A) (A) (A) (A) (A) (A) (A) (A) (A)
                 (A) (A) (A) (A) (A) (A) (A) (A) (A) (A) (A) (A)
                 (A) (A) (A) (A) (A) (A) (A) (A) (A) (A) (A) (A)
                 (A) (A) (A) (A) (A) (A) (A) (A) (A) (A) (A) (A)
                 (A) (A) (A) (A) (A) (A) (A) (A) (A) (A) (A) (A)
                 (A) (A) (A) (A) (A) (A) (A) (A) (A) (A) (A) (A)
                 (A) (A) (A) (A) (A) (A) (A) (A) (A) (A) (A) (A)
                 (A) (A) (A) (A) (A) (A) (A) (A) (A) (A) (A) (A)
                 (A) (A) (A) (A) (A) (A) (A) (A) (A) (A) (A) (A)
                 (A) (A) (A) (A) (A) (A) (A) (A) (A) (A) (A) (A)
                 (A) (A) (A) (A) (A) (A) (A) (A) (A) (A) (A) (A)
                 (A) (A) (A) (A) (A) (A) (A) (A) (A) (A) (A) (A)
                 (A) (A) (A) (A) (A) (A) (A) (A) (A) (A) (A) (A)
                 (A) (A) (A) (A) (A) (A) (A) (A) (A) (A) (A) (A)
                 (A) (A) (A) (A) (A) (A) (A) (A) (A) (A) (A) (A)
                 (A) (A) (A) (A) (A) (A) (A) (A) (A) (A) (A) (A)
                 (A) (A) (A) (A) (A) (A) (A) (A) (A) (A) (A) (A)
                 (A) (A) (A) (A) (A) (A) (A) (A) (A) (A) (A) (A)
                 (A) (A) (A) (A)
 The electronic state is 1-A.
 Alpha  occ. eigenvalues --  -19.19082 -19.18896 -19.18801 -19.18655 -10.25589
 Alpha  occ. eigenvalues --  -10.25553 -10.25482 -10.25473 -10.19739 -10.19727
 Alpha  occ. eigenvalues --  -10.19687 -10.19686 -10.19599 -10.19594 -10.19577
 Alpha  occ. eigenvalues --  -10.19551 -10.19268 -10.19227 -10.19210 -10.19207
 Alpha  occ. eigenvalues --  -10.19151 -10.19128 -10.19117 -10.19018 -10.18962
 Alpha  occ. eigenvalues --  -10.18905 -10.18806 -10.18768  -1.08322  -1.07133
 Alpha  occ. eigenvalues --   -1.07111  -1.05973  -0.86088  -0.85931  -0.85914
 Alpha  occ. eigenvalues --   -0.85812  -0.75918  -0.75798  -0.75769  -0.75719
 Alpha  occ. eigenvalues --   -0.75111  -0.74765  -0.74758  -0.74470  -0.63513
 Alpha  occ. eigenvalues --   -0.63454  -0.63376  -0.63299  -0.61544  -0.61227
 Alpha  occ. eigenvalues --   -0.61204  -0.60804  -0.55730  -0.55451  -0.55410
 Alpha  occ. eigenvalues --   -0.55236  -0.51342  -0.50832  -0.50752  -0.50545
 Alpha  occ. eigenvalues --   -0.47675  -0.47578  -0.47537  -0.47498  -0.44839
 Alpha  occ. eigenvalues --   -0.44774  -0.44744  -0.44616  -0.43925  -0.43587
 Alpha  occ. eigenvalues --   -0.43243  -0.43015  -0.42834  -0.42717  -0.42369
 Alpha  occ. eigenvalues --   -0.42155  -0.41093  -0.40012  -0.39863  -0.38784
 Alpha  occ. eigenvalues --   -0.37250  -0.37011  -0.36950  -0.36732  -0.35521
 Alpha  occ. eigenvalues --   -0.35348  -0.35201  -0.35006  -0.34755  -0.34504
 Alpha  occ. eigenvalues --   -0.34292  -0.33888  -0.26661  -0.26418  -0.26348
 Alpha  occ. eigenvalues --   -0.26266  -0.24123  -0.23909  -0.23854  -0.23704
 Alpha virt. eigenvalues --   -0.02827  -0.02294  -0.02213  -0.01891  -0.01144
 Alpha virt. eigenvalues --   -0.00906  -0.00864  -0.00775   0.01666   0.01846
 Alpha virt. eigenvalues --    0.02267   0.02572   0.03006   0.03381   0.03644
 Alpha virt. eigenvalues --    0.04062   0.04346   0.04875   0.04951   0.05245
 Alpha virt. eigenvalues --    0.05627   0.05793   0.05893   0.06711   0.07139
 Alpha virt. eigenvalues --    0.07328   0.07556   0.08255   0.08545   0.08599
 Alpha virt. eigenvalues --    0.09419   0.09603   0.09733   0.09953   0.10031
 Alpha virt. eigenvalues --    0.10557   0.10734   0.11244   0.11636   0.12063
 Alpha virt. eigenvalues --    0.12154   0.12276   0.12780   0.12824   0.13079
 Alpha virt. eigenvalues --    0.13194   0.13408   0.13558   0.13790   0.14005
 Alpha virt. eigenvalues --    0.14329   0.14463   0.14608   0.15203   0.15319
 Alpha virt. eigenvalues --    0.15462   0.15588   0.15945   0.16343   0.16797
 Alpha virt. eigenvalues --    0.16868   0.16999   0.17310   0.17698   0.17851
 Alpha virt. eigenvalues --    0.18314   0.18419   0.18759   0.19022   0.19127
 Alpha virt. eigenvalues --    0.19641   0.20158   0.20323   0.20810   0.21301
 Alpha virt. eigenvalues --    0.21559   0.21708   0.22371   0.22394   0.22765
 Alpha virt. eigenvalues --    0.22964   0.23158   0.23728   0.23929   0.24041
 Alpha virt. eigenvalues --    0.24477   0.25070   0.25334   0.25703   0.26028
 Alpha virt. eigenvalues --    0.26124   0.26172   0.26406   0.26585   0.26898
 Alpha virt. eigenvalues --    0.27063   0.27160   0.27428   0.27498   0.27643
 Alpha virt. eigenvalues --    0.27897   0.28316   0.28460   0.28712   0.29186
 Alpha virt. eigenvalues --    0.29407   0.29414   0.29696   0.29992   0.30337
 Alpha virt. eigenvalues --    0.30673   0.30756   0.31368   0.31878   0.32060
 Alpha virt. eigenvalues --    0.32255   0.32447   0.33209   0.33492   0.34058
 Alpha virt. eigenvalues --    0.34616   0.35301   0.36070   0.36227   0.36583
 Alpha virt. eigenvalues --    0.36817   0.37240   0.37317   0.37599   0.37754
 Alpha virt. eigenvalues --    0.38177   0.38380   0.38853   0.39339   0.39432
 Alpha virt. eigenvalues --    0.39712   0.40246   0.40955   0.42247   0.42604
 Alpha virt. eigenvalues --    0.43858   0.46176   0.47536   0.48244   0.50604
 Alpha virt. eigenvalues --    0.52193   0.53753   0.55009   0.55404   0.56313
 Alpha virt. eigenvalues --    0.57285   0.57871   0.58017   0.58322   0.58937
 Alpha virt. eigenvalues --    0.59835   0.59932   0.60367   0.60960   0.61419
 Alpha virt. eigenvalues --    0.62284   0.62729   0.63799   0.64655   0.66065
 Alpha virt. eigenvalues --    0.66779   0.67413   0.67710   0.68164   0.68941
 Alpha virt. eigenvalues --    0.69408   0.69709   0.70260   0.70489   0.71504
 Alpha virt. eigenvalues --    0.72038   0.72203   0.72556   0.73258   0.73877
 Alpha virt. eigenvalues --    0.74019   0.74237   0.74632   0.75054   0.75354
 Alpha virt. eigenvalues --    0.75573   0.75869   0.76196   0.76410   0.76573
 Alpha virt. eigenvalues --    0.76766   0.77108   0.77342   0.77634   0.77972
 Alpha virt. eigenvalues --    0.78016   0.78823   0.79081   0.79401   0.79681
 Alpha virt. eigenvalues --    0.80521   0.80824   0.81118   0.81734   0.82156
 Alpha virt. eigenvalues --    0.82798   0.83643   0.83904   0.84211   0.85008
 Alpha virt. eigenvalues --    0.85130   0.85753   0.86067   0.86771   0.86982
 Alpha virt. eigenvalues --    0.87388   0.87577   0.87797   0.88427   0.89714
 Alpha virt. eigenvalues --    0.90241   0.91825   0.92167   0.92206   0.92631
 Alpha virt. eigenvalues --    0.92979   0.93218   0.93574   0.93731   0.94739
 Alpha virt. eigenvalues --    0.95236   0.95515   0.95708   0.95874   0.96673
 Alpha virt. eigenvalues --    0.96944   0.97344   0.97632   0.97957   0.98367
 Alpha virt. eigenvalues --    0.98465   0.99129   0.99351   0.99812   1.00084
 Alpha virt. eigenvalues --    1.00380   1.00571   1.01107   1.01889   1.02374
 Alpha virt. eigenvalues --    1.02669   1.03619   1.04872   1.05315   1.06733
 Alpha virt. eigenvalues --    1.07677   1.09117   1.10773   1.11724   1.12048
 Alpha virt. eigenvalues --    1.12792   1.13537   1.14050   1.14120   1.15704
 Alpha virt. eigenvalues --    1.15842   1.16638   1.17030   1.17261   1.17548
 Alpha virt. eigenvalues --    1.18369   1.18856   1.19899   1.20162   1.20528
 Alpha virt. eigenvalues --    1.20879   1.21162   1.21797   1.22172   1.22674
 Alpha virt. eigenvalues --    1.23173   1.24754   1.25586   1.25831   1.26851
 Alpha virt. eigenvalues --    1.27069   1.27349   1.27522   1.28142   1.28372
 Alpha virt. eigenvalues --    1.28446   1.28888   1.29212   1.29547   1.31960
 Alpha virt. eigenvalues --    1.33083   1.33796   1.34783   1.36702   1.38076
 Alpha virt. eigenvalues --    1.40721   1.41047   1.41371   1.41983   1.42323
 Alpha virt. eigenvalues --    1.42978   1.43760   1.44158   1.47069   1.48605
 Alpha virt. eigenvalues --    1.49946   1.51697   1.58968   1.59715   1.60736
 Alpha virt. eigenvalues --    1.61238   1.61867   1.63113   1.63584   1.63697
 Alpha virt. eigenvalues --    1.65473   1.68723   1.69257   1.69653   1.69776
 Alpha virt. eigenvalues --    1.70834   1.71714   1.71973   1.72358   1.72593
 Alpha virt. eigenvalues --    1.73190   1.73485   1.74046   1.74220   1.74933
 Alpha virt. eigenvalues --    1.75383   1.75770   1.76277   1.76526   1.76773
 Alpha virt. eigenvalues --    1.77127   1.77364   1.77756   1.77818   1.78302
 Alpha virt. eigenvalues --    1.78569   1.79453   1.79783   1.80949   1.81502
 Alpha virt. eigenvalues --    1.82097   1.82914   1.82975   1.83120   1.83571
 Alpha virt. eigenvalues --    1.84506   1.84843   1.85427   1.85655   1.86048
 Alpha virt. eigenvalues --    1.86300   1.86500   1.87181   1.87420   1.88179
 Alpha virt. eigenvalues --    1.88975   1.89386   1.89978   1.91275   1.91530
 Alpha virt. eigenvalues --    1.92010   1.92724   1.93124   1.93474   1.93531
 Alpha virt. eigenvalues --    1.93629   1.94568   1.95254   1.96231   1.96427
 Alpha virt. eigenvalues --    1.97102   1.97247   1.97635   1.98610   2.01294
 Alpha virt. eigenvalues --    2.02109   2.02365   2.04198   2.07273   2.08739
 Alpha virt. eigenvalues --    2.08933   2.09481   2.10962   2.11747   2.12130
 Alpha virt. eigenvalues --    2.12238   2.14827   2.16953   2.17625   2.18328
 Alpha virt. eigenvalues --    2.19213   2.19944   2.21251   2.21446   2.25625
 Alpha virt. eigenvalues --    2.26909   2.27583   2.27746   2.27782   2.28242
 Alpha virt. eigenvalues --    2.28406   2.28852   2.29022   2.29618   2.29733
 Alpha virt. eigenvalues --    2.30320   2.31001   2.31035   2.31391   2.31704
 Alpha virt. eigenvalues --    2.33135   2.33548   2.33978   2.34088   2.34866
 Alpha virt. eigenvalues --    2.34980   2.35079   2.35186   2.36749   2.37033
 Alpha virt. eigenvalues --    2.37546   2.37703   2.37953   2.38284   2.38926
 Alpha virt. eigenvalues --    2.39197   2.43784   2.43886   2.45241   2.45704
 Alpha virt. eigenvalues --    2.48164   2.49336   2.49952   2.50732   2.53066
 Alpha virt. eigenvalues --    2.53478   2.55013   2.56767   2.66210   2.66392
 Alpha virt. eigenvalues --    2.66505   2.66624   2.68385   2.69263   2.69410
 Alpha virt. eigenvalues --    2.69744   2.70730   2.71712   2.72074   2.72275
 Alpha virt. eigenvalues --    2.73338   2.73605   2.73904   2.74093   2.75685
 Alpha virt. eigenvalues --    2.75996   2.76420   2.77085   2.77455   2.77695
 Alpha virt. eigenvalues --    2.78551   2.79043   2.90737   2.90784   2.91475
 Alpha virt. eigenvalues --    2.91962   2.95030   2.95527   2.96281   2.96981
 Alpha virt. eigenvalues --    2.97691   2.97922   2.98636   2.98959   3.01756
 Alpha virt. eigenvalues --    3.02433   3.02701   3.04356   3.05828   3.05902
 Alpha virt. eigenvalues --    3.06391   3.06848   3.07005   3.07135   3.07516
 Alpha virt. eigenvalues --    3.08401   3.16443   3.16751   3.16972   3.17390
 Alpha virt. eigenvalues --    3.33043   3.33498   3.34408   3.34487   3.44986
 Alpha virt. eigenvalues --    3.47191   3.47632   3.48754   3.62715   3.64144
 Alpha virt. eigenvalues --    3.64287   3.65952   3.85513   3.91778   3.92396
 Alpha virt. eigenvalues --    3.93274  45.37758  45.37818  45.38184  45.38532
[...]
 0001744,-0.00003048,-0.00000257,0.00000736,-0.00000131,-0.00001442,0.0
 0000805,-0.00000875,0.00000510,-0.00000945,-0.00000663,-0.00000424,0.0
 0001316,-0.00001169,-0.00011519,-0.00003017,-0.00029276,0.00021708,-0.
 00002550,0.00001775,-0.00022819,-0.00003841,-0.00003246,0.00000305,0.0
 0000301,0.00000587,0.00000198,0.00000101,0.00000397,0.00000227,-0.0000
 0304,-0.00000040,-0.00001039,-0.00000563,-0.00000233,0.00000427,-0.000
 00163,-0.00000427,0.00000158,-0.00000416,0.00000268,0.00000044,0.00000
 205,-0.00000001,0.00000043,0.00000215,0.00000023,0.00000003,0.00000014
 ,-0.00000284,0.00000154,0.00000292,-0.00000205,0.00004366,-0.00000505,
 -0.00000607,-0.00000914,-0.00000143,0.00000388,-0.00000156,-0.00000139
 ,0.00000054,-0.00000420,-0.00000500,0.00000458,0.00000630,-0.00000106,
 0.00000121,-0.00000599,0.00001712,-0.00000180,-0.00000048,-0.00000078,
 -0.00000065,-0.00000177,-0.00000083,0.00000036,-0.00000148,-0.00000113
 ,-0.00000023,-0.00000030,0.00000031,-0.00000154,0.00000515,-0.00000741
 ,-0.00000450,-0.00002084,-0.00002040,0.00003840,-0.00002703,0.00003013
 ,-0.00001164,-0.00000376,-0.00000391,-0.00000729,0.00003735,0.00000416
 ,0.00003193,-0.00005293,-0.00003985,-0.00003653,-0.00726291,-0.0037751
 6,-0.01460270,0.00145690,0.00380771,-0.00021922,0.00038020,0.00001495,
 0.00050634,-0.00141812,-0.00052795,0.00149162,-0.00051364,0.00220454,-
 0.00557335,-0.08456682,-0.01999589,-0.31314622,0.00082592,-0.00039183,
 0.00059237,-0.00043354,-0.00018106,-0.00078664,0.00006953,-0.00013080,
 -0.00009858,0.09081091,0.01947508,0.33090596,0.00000778,0.00000494,-0.
 00000015,0.00000740,-0.00001080,0.00000689,-0.00002910,0.00000374,0.00
 003335,0.00002896,0.00006657,0.00002447,-0.00002957,0.00002522,-0.0000
 2833,-0.00000498,0.00000411,0.00000115,0.00000184,-0.00000401,-0.00000
 005,0.00000321,-0.00000561,-0.00000318,-0.00000215,-0.00000579,-0.0000
 0775,-0.00000240,-0.00000496,-0.00000281,0.00000148,-0.00007575,-0.000
 01450,-0.00002301,0.00008480,0.00007029,0.00008486,-0.00011126,-0.0001
 2157,0.00000622,-0.00000323,0.00000439,-0.00001435,-0.00000480,0.00000
 907,-0.00001926,0.00000755,0.00004451,-0.00001327,-0.00004998,0.000012
 15,0.00001588,0.00001905,-0.00003619,0.00003954,-0.00000128,0.00001569
 ,-0.00000317,-0.00000221,-0.00000698,-0.00000069,0.00000250,-0.0000078
 9,-0.00000120,0.00000913,-0.00000573,-0.00000487,0.00000310,-0.0000035
 7,0.00008137,-0.00025461,0.00015668,-0.00009628,0.00001033,0.00001386,
 0.00003777,-0.00001094,0.00000153,0.00000766,0.00003279,-0.00001270,-0
 .00003753,0.00005081,-0.00002765,-0.00001247,-0.00006962,0.00000498,0.
 00000663,0.00001463,-0.00001085,-0.00000184,0.00000361,-0.00000213,0.0
 0000686,0.00000969,-0.00000489,-0.00000548,-0.00000374,0.00000354,-0.0
 0032198,0.00009347,0.00011658,-0.00106344,-0.00037879,0.00051481,0.000
 28853,-0.00012420,-0.00019386,-0.00001558,0.00001141,-0.00002600,-0.00
 007711,-0.00001891,0.00006204,-0.00000405,0.00003218,-0.00008489,-0.00
 021866,0.00085954,0.00004094,0.00451455,-0.00348532,0.00103360,-0.0033
 7093,-0.00570824,-0.00320362,-0.16604620,-0.14352761,-0.05020600,-0.00
 245814,-0.00823235,0.00031088,0.00340083,-0.00187646,-0.00243425,-0.00
 051209,0.00037429,0.00010746,-0.00001759,-0.00042343,-0.00026078,-0.00
 207427,0.00233227,0.00084317,-0.00021908,-0.00030733,-0.00000099,0.169
 17898,-0.00000696,-0.00000215,0.00000147,-0.00000035,0.00000617,-0.000
 00483,0.00000909,0.00000755,-0.00001490,-0.00001148,-0.00002615,-0.000
 00251,-0.00002313,-0.00001679,0.00002304,0.00001137,-0.00000215,-0.000
 00605,-0.00000074,0.00000306,-0.00000104,-0.00000306,0.00000245,0.0000
 0066,0.00000405,-0.00000046,0.00000199,0.00000026,0.00000429,0.0000003
 8,0.00001924,0.00000539,0.00000684,0.00005243,-0.00008753,-0.00002042,
 -0.00009216,0.00010312,0.00003100,0.00000072,-0.00000526,-0.00001970,-
 0.00000005,0.00000330,0.00000254,0.00000827,-0.00000075,-0.00001637,0.
 00000209,0.00002446,0.00000004,0.00000921,-0.00003427,-0.00000673,-0.0
 0002144,0.00002579,-0.00000632,0.00000227,0.00000068,0.00000392,-0.000
 00146,0.00000050,0.00000452,-0.00000259,-0.00000239,0.00000254,-0.0000
 0396,-0.00001078,0.00000726,-0.00074330,-0.00006372,0.00013440,0.00013
 564,0.00003763,-0.00007388,-0.00006507,0.00001228,0.00003643,0.0000358
 7,-0.00003297,-0.00000518,0.00002430,-0.00009637,0.00003628,0.00009927
 ,0.00022565,-0.00010629,-0.00000835,-0.00002245,0.00000678,0.00000514,
 -0.00000246,0.00000186,-0.00000482,-0.00001185,0.00000706,0.00001892,0
 .00000322,-0.00000878,0.00005643,-0.00009523,-0.00000167,-0.00003980,-
 0.00088170,0.00029193,-0.00001668,-0.00016316,0.00014255,0.00000431,-0
 .00000344,0.00000848,-0.00001184,0.00005818,-0.00003036,0.00001942,0.0
 0000255,0.00004850,0.00073051,-0.00018002,0.00027481,-0.00338347,0.001
 94706,0.00391708,-0.01098473,-0.00897309,-0.00631997,-0.14421253,-0.19
 312192,-0.04732328,-0.00218879,0.00133676,0.00155612,-0.00192587,0.003
 14441,0.00048516,0.00036760,-0.00037114,-0.00014999,-0.00070906,-0.000
 34455,-0.00029141,0.00240843,-0.00119529,-0.00045535,0.00000849,0.0000
 5402,0.00010805,0.15781486,0.19899714,-0.00001408,-0.00000177,0.000004
 03,0.00001425,0.00000227,-0.00000631,-0.00000144,0.00001057,-0.0000067
 9,0.00003686,0.00001856,0.00000163,-0.00021218,0.00000084,0.00004699,0
 .00004607,-0.00001328,-0.00000318,0.00000262,-0.00000035,-0.00000030,0
 .00000101,0.00000077,-0.00000088,0.00000704,0.00000103,-0.00000252,-0.
 00000358,0.00000493,-0.00000447,0.00001300,-0.00004054,-0.00001266,0.0
 0025850,-0.00010567,0.00006508,-0.00019415,0.00012026,-0.00009464,-0.0
 0000535,0.00001209,0.00000266,0.00000932,-0.00001179,-0.00002985,0.000
 00708,0.00001563,0.00000890,0.00003231,-0.00002252,-0.00004246,-0.0000
 6306,0.00019538,0.00022891,-0.00002751,-0.00002735,-0.00003247,-0.0000
 0294,-0.00000971,-0.00000054,0.00000284,-0.00000799,-0.00000107,0.0000
 0578,-0.00000699,-0.00000085,0.00000657,0.00000977,0.00001153,0.001132
 74,-0.00014078,-0.00015231,-0.00026418,-0.00004809,0.00007274,0.000012
 79,-0.00004653,-0.00000078,-0.00009691,-0.00001317,0.00003045,0.000045
 62,-0.00004384,-0.00001111,-0.00017080,0.00019869,-0.00007101,0.000012
 26,0.00000950,0.00000437,-0.00002562,-0.00000977,0.00001466,-0.0000161
 1,-0.00000572,0.00001227,-0.00002339,0.00001313,0.00000566,0.00022156,
 -0.00011798,0.00001726,-0.00023671,-0.00006155,0.00035421,-0.00044495,
 0.00033486,0.00003339,-0.00000795,-0.00000175,0.00000053,0.00021357,-0
 .00032600,-0.00006923,-0.00004679,0.00001245,-0.00004433,0.00038507,0.
 00052741,-0.00117018,0.00058285,0.00348278,-0.00258970,0.01537771,0.01
 614405,0.01005305,-0.04826482,-0.04583484,-0.07536624,-0.02030419,-0.0
 2215705,-0.00250387,-0.00194730,0.00089340,-0.00529102,0.00010955,-0.0
 0015953,0.00010148,0.00074027,0.00085037,0.00031212,0.00049469,-0.0008
 2836,0.00063028,-0.00101638,-0.00108396,-0.00020951,0.05265423,0.04871
 617,0.07498631,0.00005228,0.00017961,-0.00015372,-0.00024947,0.0000194
 4,0.00005113,0.00020332,0.00002068,-0.00009397,0.00009685,-0.00095519,
 0.00070424,0.00440483,0.00051471,-0.00139892,-0.00108682,0.00014300,0.
 00021292,-0.00011549,0.00005325,-0.00000900,-0.00006293,0.00001948,0.0
 0000428,-0.00001586,-0.00003378,0.00002743,0.00005639,-0.00003633,0.00
 000834,-0.00023227,-0.00002264,-0.00008790,-0.00570903,0.01209592,-0.0
 0492999,-0.00483901,-0.00621747,0.00555602,0.00000858,0.00009566,0.000
 13613,0.00009591,-0.00002318,-0.00005696,0.00008813,0.00001755,-0.0000
 5919,-0.00000225,-0.00011423,-0.00020729,-0.00018053,0.00061399,0.0008
 3860,-0.00018198,-0.00015449,-0.00008560,-0.00000484,0.00000564,0.0000
 0502,0.00001983,-0.00000981,-0.00000276,0.00003276,-0.00003768,-0.0000
 2368,0.00007375,0.00011260,0.00002421,0.00899586,-0.00212029,-0.003103
 89,-0.00211620,-0.00024192,0.00076367,0.00046059,-0.00019533,0.0002600
 2,-0.00062214,0.00006074,0.00016023,0.00038758,-0.00005909,-0.00007172
 ,-0.00107502,0.00068556,-0.00012316,0.00005757,0.00006074,-0.00012560,
 -0.00018915,-0.00008303,0.00007495,-0.00011131,-0.00002046,0.00000930,
 -0.00013738,0.00008526,0.00001732,0.00019704,-0.00022805,0.00021180,-0
 .01613881,-0.01713369,-0.00464333,-0.00406552,0.00204322,-0.00097066,0
 .00001073,-0.00006649,-0.00001591,0.00210332,-0.00103264,0.00033989,-0
 .00166771,-0.00117180,-0.00088795,0.00075841,-0.00321449,-0.00752893,0
 .00039238,0.00074987,0.00362451,0.00190832,-0.00594851,-0.00231263,0.0
 1093117,0.00397937,-0.00452866,-0.09729304,-0.06882462,0.04076471,-0.0
 1189965,-0.03088208,0.03013930,-0.00057021,-0.00106579,0.00107884,-0.0
 0037674,0.00046406,0.00038414,0.00011554,0.00027503,-0.00011105,-0.000
 80839,0.00299143,0.00079786,-0.00148590,0.00258551,0.00105993,0.360290
 81,-0.00045315,-0.00035715,0.00038713,0.00067532,0.00010163,-0.0002814
 0,-0.00020032,0.00006688,0.00007886,0.00139239,0.00118180,-0.00089240,
 -0.01028435,-0.00208404,0.00389871,0.00292525,-0.00041863,-0.00062336,
 0.00024529,-0.00006622,-0.00001558,0.00009758,-0.00000954,-0.00003054,
 0.00028633,0.00002415,-0.00012626,-0.00018672,0.00018434,-0.00010908,0
 .00035112,-0.00108619,0.00024307,0.02013037,-0.01339433,0.00640225,-0.
 01298303,0.00397282,-0.00867511,-0.00007912,0.00008396,0.00007401,0.00
 005624,-0.00013834,-0.00022118,-0.00006057,0.00012485,0.00011011,0.000
 46362,-0.00018821,-0.00034016,-0.00086211,0.00184974,0.00234005,-0.000
 08156,-0.00035645,-0.00040710,-0.00002693,-0.00005754,-0.00004126,0.00
 001302,-0.00005981,-0.00004332,0.00007011,-0.00004096,-0.00001551,0.00
 004578,0.00009359,0.00006253,0.00896990,-0.00285296,-0.00374676,-0.002
 20979,-0.00036608,0.00077166,0.00056994,-0.00013132,0.00020490,-0.0006
 5292,0.00010866,0.00010175,0.00021877,0.00016441,-0.00003664,-0.001298
 41,0.00027892,0.00030377,0.00010124,0.00013348,-0.00015247,-0.00016855
 ,-0.00005446,0.00008110,-0.00009148,0.00000893,-0.00000726,-0.00018340
 ,0.00007771,0.00001957,0.00005472,-0.00001936,-0.00007164,-0.02196098,
 -0.01088418,-0.00490239,-0.00075753,0.00255528,0.00018683,-0.00012998,
 0.00004444,0.00005910,0.00042105,-0.00317956,-0.00166139,0.00093873,0.
 00230986,0.00056101,-0.00355227,0.00335350,-0.00731129,0.00068774,-0.0
 0188302,0.00556934,-0.00461554,0.00224668,-0.00047671,-0.00320976,0.00
 031825,0.01139622,-0.05318742,-0.13603783,0.09808374,-0.02456046,-0.03
 152412,0.03373487,-0.00072666,-0.00114434,0.00104458,0.00050275,-0.000
 47047,0.00019991,-0.00000923,-0.00025076,0.00046455,0.00290374,0.00010
 352,-0.00056211,0.00269545,-0.00086423,-0.00088172,0.26416368,0.325418
 42,0.00025005,0.00018514,-0.00027983,-0.00047453,-0.00005129,0.0001843
 3,0.00014098,0.00004221,-0.00007631,-0.00106176,-0.00070601,0.00064665
 ,0.00661498,0.00125191,-0.00224443,-0.00184188,0.00025866,0.00034713,-
 0.00015602,0.00004812,0.00001591,-0.00007445,0.00001100,0.00001105,-0.
 00020887,-0.00002994,0.00007045,0.00012280,-0.00011931,0.00006580,-0.0
 0002922,0.00070702,-0.00031832,-0.01227008,0.01109905,-0.00051962,0.00
 908134,-0.00912628,0.00084491,0.00006298,-0.00002007,0.00000876,-0.000
 02346,0.00005906,0.00011845,0.00003825,-0.00005621,-0.00002992,-0.0002
 7840,0.00002538,0.00015061,0.00042994,-0.00075399,-0.00106515,0.000025
 22,0.00014102,0.00023700,0.00001117,0.00003819,0.00001483,-0.00000169,
 0.00003831,0.00001236,-0.00002992,0.00002738,-0.00000817,-0.00000614,0
 .00000626,-0.00004247,-0.00063550,-0.00150019,-0.00004510,-0.00034922,
 0.00014104,0.00003829,-0.00001529,-0.00009508,0.00013779,0.00002260,0.
 00003697,-0.00002457,-0.00011782,0.00002368,0.00015017,0.00023450,0.00
 013928,0.00007269,-0.00002809,-0.00007488,-0.00009608,-0.00003570,0.00
 000201,-0.00001098,0.00000632,-0.00001226,-0.00003422,0.00001268,-0.00
 001909,-0.00003394,-0.00003272,-0.00000097,-0.00029277,-0.00187887,-0.
 00186792,0.00445828,-0.00115323,-0.00071101,-0.00100929,0.00004639,-0.
 00000786,-0.00008692,0.00048914,0.00120649,0.00137705,-0.00095602,-0.0
 0161407,-0.00101160,-0.00286363,-0.00153613,-0.00389744,0.00412976,0.0
 0457654,0.00012559,-0.00833294,-0.00706040,-0.00058520,0.01832284,0.03
 881914,-0.04317955,0.01281878,0.07491450,-0.19668664,0.00384207,0.0023
 0940,0.01017010,-0.00003450,-0.00007889,0.00032513,0.00039500,0.000165
 94,0.00004045,0.00083662,0.00128870,-0.00161329,0.00073129,-0.00044787
 ,0.00116695,0.00117119,-0.00066411,0.00290784,0.06986422,-0.05826163,0
 .32985373,0.00001923,-0.00010977,0.00004328,0.00017127,-0.00007462,-0.
 00000128,-0.00016672,-0.00004046,0.00008494,0.00025735,0.00030905,-0.0
 0027347,-0.00195653,-0.00015722,0.00061169,0.00045660,-0.00010534,-0.0
 0013919,0.00006940,-0.00002945,0.00001728,0.00005037,-0.00001672,0.000
 00642,0.00000890,0.00002709,-0.00001831,-0.00001683,0.00000351,0.00003
 536,-0.00015999,-0.00007029,0.00009547,0.00284347,-0.00190466,0.000780
 36,-0.00582103,0.00234517,-0.00385437,-0.00001903,-0.00010343,-0.00015
 694,-0.00011459,0.00001957,0.00005320,-0.00009748,-0.00000188,0.000103
 63,-0.00000985,0.00005856,0.00020666,0.00014673,-0.00051844,-0.0007400
 4,0.00024813,0.00017279,0.00005971,0.00000632,-0.00000983,-0.00000749,
 -0.00002317,0.00001117,0.00000375,-0.00003205,0.00003720,0.00001822,-0
 .00009769,-0.00014696,-0.00002261,-0.01544881,-0.00024029,0.00319046,0
 .00261385,0.00058000,-0.00102045,-0.00048654,0.00019031,-0.00022351,0.
 00097822,0.00003081,-0.00032961,-0.00053408,0.00008644,0.00032229,0.00
 191506,-0.00109209,-0.00004065,-0.00005251,-0.00005365,0.00013419,0.00
 023665,0.00011556,-0.00009320,0.00014250,0.00002590,-0.00003438,0.0002
 2909,-0.00011322,-0.00000960,-0.00033505,0.00041523,-0.00029662,0.0040
 9063,0.01068245,0.00152631,0.00752184,-0.00207746,0.00189768,-0.000035
 66,0.00007293,-0.00001978,-0.00253650,0.00119539,-0.00047606,0.0007590
 6,0.00152285,0.00042856,0.00090418,-0.00054958,-0.00014347,0.00046798,
 0.00062761,-0.00045181,-0.00106310,-0.00069269,-0.00051303,0.00187998,
 0.00355791,-0.00293493,-0.01108024,-0.01180377,0.00715742,0.00282036,0
 .00187740,-0.00111710,0.00010042,0.00030458,-0.00006451,-0.00002035,0.
 00011832,-0.00008106,0.00011476,0.00022321,-0.00042035,-0.00037032,0.0
 0013303,0.00009834,0.00046628,0.00002799,-0.00009571,-0.24050431,-0.16
 644790,-0.09681115,0.25146383,0.00010855,-0.00003506,0.00000043,0.0000
 3587,-0.00006346,0.00003859,-0.00007974,-0.00011148,0.00008134,-0.0001
 3826,0.00026536,-0.00028015,-0.00005020,-0.00005196,-0.00008544,-0.000
 02018,-0.00000246,-0.00002708,0.00002077,-0.00001268,0.00001336,0.0000
 2568,-0.00001399,0.00001384,-0.00003091,0.00001850,0.00000855,0.000014
 75,-0.00001427,0.00004499,-0.00014538,0.00010006,0.00016723,0.00006531
 ,-0.00364635,0.00044837,0.00067677,0.00679055,-0.00044556,0.00002831,-
 0.00011728,-0.00016623,-0.00011143,0.00008695,0.00013824,-0.00005766,-
 0.00005778,-0.00001059,-0.00017650,0.00021981,0.00034761,0.00050808,-0
 .00135661,-0.00184711,0.00016919,0.00031863,0.00025851,0.00001605,0.00
 001729,0.00002206,-0.00002268,0.00002532,0.00002441,-0.00005172,0.0000
 4041,0.00003640,-0.00008053,-0.00014045,-0.00003524,-0.01475656,0.0039
 3937,0.00554365,0.00337931,0.00071576,-0.00118520,-0.00075290,0.000189
 44,-0.00029142,0.00106110,-0.00009557,-0.00018259,-0.00030306,-0.00034
 912,0.00011824,0.00224814,-0.00044199,-0.00076902,-0.00009543,-0.00012
 342,0.00021765,0.00026178,0.00008642,-0.00011268,0.00010939,-0.0000246
 4,0.00001789,0.00024930,-0.00009366,-0.00001343,0.00014588,-0.00006302
 ,0.00040657,0.01785176,-0.00012993,0.00090929,0.00060034,-0.00708569,-
 0.00113712,0.00004276,0.00003688,0.00001426,-0.00212688,0.00263989,0.0
 0030584,0.00125365,0.00003869,0.00087938,-0.00131125,-0.00009802,0.000
 01038,0.00044415,0.00082399,-0.00078013,-0.00025783,-0.00106880,-0.000
 24671,0.00151672,0.00262882,-0.00312991,-0.02085294,-0.02460138,0.0020
 5765,0.00047162,0.00197767,0.00213700,0.00016173,-0.00001897,0.0000941
 0,0.00007674,0.00006655,-0.00006643,0.00008800,0.00019493,-0.00037505,
 0.00021033,-0.00024670,-0.00003801,0.00013521,0.00060660,0.00043367,-0
 .15214289,-0.13688574,-0.05274693,0.16158770,0.15512257,-0.00001497,-0
 .00002694,0.00001120,0.00003762,-0.00000119,-0.00001620,-0.00000234,0.
 00000192,-0.00001967,0.00008947,-0.00000667,-0.00007113,-0.00047663,-0
 .00004713,0.00017147,0.00012303,-0.00005390,-0.00004216,0.00001523,-0.
 00000163,0.00000535,0.00000846,0.00000376,0.00000318,0.00000998,0.0000
 0964,0.00000077,-0.00000814,0.00001772,0.00001241,-0.00002924,0.000096
 79,0.00002288,0.00081490,-0.00005599,-0.00018640,-0.00227587,-0.000605
 03,-0.00026486,-0.00001522,-0.00002144,-0.00005946,-0.00001701,0.00001
 213,0.00001761,-0.00000700,-0.00001008,-0.00001957,0.00000629,0.000056
 97,0.00003945,0.00005466,-0.00024090,-0.00020778,0.00004605,0.00005124
 ,-0.00001027,0.00000519,-0.00000548,0.00000534,-0.00000598,0.00000100,
 0.00001016,-0.00001092,0.00000302,0.00000997,-0.00002446,-0.00006025,0
 .00000789,-0.00337218,0.00360058,0.00138121,0.00179605,-0.00000333,-0.
 00048226,-0.00016426,0.00029132,-0.00028229,0.00031034,-0.00004971,-0.
 00005614,-0.00002806,-0.00002318,-0.00007564,0.00049250,-0.00047808,-0
 .00002751,-0.00002025,0.00001119,0.00014000,0.00015318,0.00003683,-0.0
 0004288,0.00005166,0.00001439,0.00001185,0.00008963,-0.00002765,0.0000
 1326,-0.00024873,0.00016702,0.00015803,0.00268152,-0.00102220,-0.00660
 017,0.00254050,-0.00017238,0.00157810,0.00001337,-0.00000229,0.0000290
 2,-0.00080359,0.00067332,-0.00051760,0.00005778,0.00049736,0.00048060,
 0.00009302,0.00069972,0.00166170,-0.00017730,-0.00017205,-0.00063081,-
 0.00007954,0.00011282,-0.00048089,0.00183335,0.00199627,0.00050871,0.0
 2700975,0.01821209,0.01361175,0.00185895,0.00415921,-0.00516349,0.0001
 7280,0.00024912,-0.00029847,-0.00008073,-0.00011860,-0.00006420,-0.000
 03593,-0.00000826,0.00001751,0.00015430,-0.00012959,0.00006423,-0.0005
 5014,-0.00032871,-0.00218806,-0.12558651,-0.07648532,-0.10036050,0.093
 51545,0.04918251,0.09819473\\-0.00000620,0.00000065,0.00000143,-0.0000
 0122,0.00000245,-0.00000235,0.00000121,-0.00000434,0.00000325,0.000006
 11,0.00000006,0.00000320,-0.00003500,0.00000524,0.00000612,0.00001551,
 -0.00000903,-0.00000599,0.00000002,-0.00000058,-0.00000121,-0.00000018
 ,-0.00000011,-0.00000038,-0.00000025,0.00000019,0.00000031,-0.00000269
 ,0.00000201,-0.00000011,-0.00000077,0.00000016,-0.00000100,0.00001699,
 -0.00000478,-0.00000204,-0.00000176,0.00000456,-0.00001388,0.00000006,
 0.00000180,0.00000127,0.00000004,0.00000271,0.00000084,-0.00000458,-0.
 00000084,-0.00000125,-0.00000107,0.00000163,-0.00000195,0.00000053,0.0
 0000135,0.00000719,0.00000349,-0.00000566,-0.00000775,0.00000008,0.000
 00095,-0.00000071,0.00000033,0.00000119,-0.00000102,-0.00000045,0.0000
 0042,-0.00000115,0.00000072,0.00000195,0.00000171,0.00000070,-0.000003
 08,-0.00000271,-0.00000380,-0.00000257,-0.00000058,0.00000123,0.000003
 67,-0.00000158,0.00000258,-0.00000023,-0.00000078,0.00000092,-0.000002
 25,0.00000177,-0.00000512,-0.00000211,0.00000321,0.00000020,0.00000116
 ,0.00000109,-0.00000021,-0.00000014,-0.00000067,0.00000047,-0.00000054
 ,0.00000011,0.00000061,-0.00000022,0.00000088,0.00000128,-0.00000100,0
 .00000034,-0.00000145,0.00001350,0.00000441,0.00000501,-0.00000510,0.0
 0000213,0.00000220,0.00000010,0.00000030,-0.00001404,0.00000779,-0.000
 00331,0.00001838,-0.00000709,-0.00000450,-0.00000199,-0.00000239,0.000
 00153,-0.00000118,-0.00000037,0.00000196,0.00000114,0.00000122,0.00000
 429,0.00000179,0.00000520,-0.00000018,-0.00000168,-0.00001894,0.000011
 10,0.00000844,0.00000719,-0.00000607,-0.00000009,-0.00000007,0.0000012
 6,-0.00000033,0.00000011,0.00000106,0.00000020,0.00000137,0.00000101,-
 0.00000381,-0.00000191,0.00000183,-0.00000032,0.00000018,-0.00000056,-
 0.00000047,0.00001489,-0.00000071,-0.00000154,-0.00001034,-0.00000120\
 \\@


 The hours that make us happy make us wise.
                         -- John Masefield
 Job cpu time:       3 days  8 hours  7 minutes 20.5 seconds.
 Elapsed time:       0 days 10 hours  1 minutes 46.0 seconds.
 File lengths (MBytes):  RWF=   2167 Int=      0 D2E=      0 Chk=     54 Scr=      1
 Normal termination of Gaussian 16 at Fri Jun 21 09:14:48 2019.
