 Entering Gaussian System, Link 0=g16
 Input=tetrameroB_b3lypd3_n07d_ccl4_of.com
 Output=tetrameroB_b3lypd3_n07d_ccl4_of.log
 AtFile(1): N07D_B3LYP.gbs
             -H 0
             6-31G
             P   1 1.00       0.000000000000
                  0.7500000000D+00  0.10000000D+01
             ****
             -He 0
             6-31G**
             ****
             -Li 0
             6-31+G**
             ****
             -Be 0
             6-31+G**
             ****
             -B 0
             6-31G
             P   1 1.00       0.000000000000
                  0.3500000000D-01  0.1000000000D+01
             D   1 1.00       0.000000000000
                  0.3430000000D+00  0.1000000000D+01
             ****
             -C 0
             6-31G
             S   1 1.00       0.000000000000
                  0.7500000000D+01  0.1000000000D+01
             P   1 1.00       0.000000000000
                  0.5000000000D-01  0.1000000000D+01
             D   1 1.00       0.000000000000
                  0.8200000000D+00  0.1000000000D+01
             ****
             -N 0
             6-31G
             S   1 1.00       0.000000000000
                  0.1260000000D+02  0.1000000000D+01
             P   1 1.00       0.000000000000
                  0.5300000000D-01  0.1000000000D+01
             D   1 1.00       0.000000000000
                  0.1015000000D+01  0.1000000000D+01
             ****
             -O 0
             6-31G
             S   1 1.00
                  0.1510000000D+02  0.1000000000D+01
             P   1 1.00       0.000000000000
                  0.6500000000D-01  0.1000000000D+01
             D   1 1.00        0.000000000000
                  0.1190000000D+01  0.1000000000D+01
             D   1 1.00        0.000000000000
                  0.1800000000D+00  0.1000000000D+01
             ****
             -F 0
             6-31G
             S   1 1.00
                  0.1830000000D+02  0.1000000000D+01
             P   1 1.00       0.000000000000
                  0.8300000000D-01  0.1000000000D+01
             D   1 1.00       0.000000000000
                  1.3700000000D+00  0.1000000000D+01
             D   1 1.00       0.000000000000
                  0.2300000000D+00  0.1000000000D+01
             ****
             -Ne 0
             6-31+G**
             ****
             -Na 0
             6-31+G**
             ****
             -Mg 0
             6-31+G**
             ****
             -Al 0
             6-31G
             S   1 1.00      0.000000000000
                  0.3100000000D+01  0.1000000000D+01
             P   1 1.00      0.000000000000
                  0.1500000000D-01  0.1000000000D+01
             D   1 1.00      0.000000000000
                  0.1890000000D+00  0.1000000000D+01
             ****
             -Si 0
             6-31G
             S   1 1.0
                  0.3600000000D+01  0.1000000000D+01
             P   1 1.00       0.000000000000
                  0.3300000000D-01  0.1000000000D+01
             D   1 1.0        0.000000000000
                  0.2750000000D+00  0.1000000000D+01
             ****
             -P  0
             6-31G
             S   1 1.00       0.000000000000
                  0.5500000000D+01  0.1000000000D+01
             P   1 1.00       0.000000000000
                  0.3500000000D-01  0.1000000000D+01
             D   1 1.00       0.000000000000
                  0.3730000000D+00  0.1000000000D+01
             ****
             -S  0
             6-31G
             S   1 1.00       0.000000000000
                  0.8000000000D+01  0.1000000000D+01
             P   1 1.00        0.000000000000
                  0.4100000000D-01  0.1000000000D+01
             D   1 1.00        0.000000000000
                  0.4790000000D+00  0.1000000000D+01
             ****
            -Cl 0
             6-31G
             S   1 1.00      0.000000000000
                  0.8500000000D+01  0.1000000000D+01
             P   1 1.00      0.000000000000
                  0.4800000000D-01  0.1000000000D+01
             D   1 1.00      0.000000000000
                  0.6000000000D+00  0.1000000000D+01
             D   1 1.00       0.000000000000
                  0.1960000000D+00  0.1000000000D+01
             ****
            -Br 0
             S   3 1.00       0.000000000000
                  0.4721881000D+01  0.1749732514D+00
                  0.2257555000D+01 -0.7074172290D+00
                  0.3896080000D+00  0.1258999543D+01
             S   1 1.00       0.000000000000
                  0.1471340000D+00  0.1000000000D+01
             P   3 1.00       0.000000000000
                  0.1896942000D+01 -0.2464576731D+00
                  0.9108990000D+00  0.3623179892D+00
                  0.3168550000D+00  0.8338469725D+00
             P   1 1.00       0.000000000000
                  0.1095030000D+00  0.1000000000D+01
             P   1 1.00       0.000000000000
                  0.3609700000D-01  0.1000000000D+01
             D   1 1.00
                  0.4750000000D+00  0.1000000000D+01
             D   1 1.00
                  0.1280000000D+00  0.1000000000D+01
             ****
            -I   0
             S   3 1.00       0.000000000000
                  0.2122765000D+01  0.2063429899D+01
                  0.1770481000D+01 -0.2869526473D+01
                  0.3130840000D+00  0.1404747074D+01
             S   1 1.00       0.000000000000
                  0.1320000000D+00  0.1000000000D+01
             P   3 1.00       0.000000000000
                  0.2432887000D+01  0.7732753148D+00
                  0.2137249000D+01 -0.1020833156D+01
                  0.3145460000D+00  0.1095666871D+01
             P   1 1.00       0.000000000000
                  0.1049450000D+00  0.1000000000D+01
             P   1 1.00       0.000000000000
                  0.3264100000D-01  0.1000000000D+01
             D   1 1.00
                  0.300000000          1.00000000
             D   1 1.00
                  0.090000000          1.00000000
             ****
             -Zn 0
             SP   6 1.00       0.000000000000
                  0.6936492000D+02 -0.4440098182D-02 -0.7689261805D-02
                  0.2362082000D+02  0.7505253308D-01 -0.2997981924D-01
                  0.1018471000D+02  0.2533111104D+00  0.7082410821D-01
                  0.4334082000D+01 -0.2881897118D+00  0.4046140897D+00
                  0.1810918000D+01 -0.7267052298D+00  0.4882324876D+00
                  0.7148410000D+00 -0.2133439088D+00  0.1751969956D+00
             SP   3 1.00       0.000000000000
                  0.2823842000D+01  0.4898545031D-01 -0.1586762981D+00
                  0.1039543000D+01  0.2592794075D+00  0.8379326898D-01
                  0.1432640000D+00 -0.1115711463D+01  0.9840546881D+00
             SP   1 1.00       0.000000000000
                  0.4929600000D-01  0.1000000000D+01  0.1000000000D+01
             S    1 1.00       0.000000000000
                  0.1620000000D+00  0.1000000000D+01
             D    3 1.00       0.000000000000
                  0.3370764000D+02  0.9262647815D-01
                  0.9061106000D+01  0.4002979920D+00
                  0.2738383000D+01  0.6896607863D+00
             D    1 1.00
                  0.2440000000D+01  0.1000000000D+01
             D    1 1.00       0.000000000000
                  0.7302940000D+00  0.1000000000D+01
             D    1 1.00       0.000000000000
                  0.1620000000D+00  0.1000000000D+01
             ****
             -Br,-I,-Zn 0
             SDDALL
            ****
 Initial command:
 /home/apps/g16/g16/l1.exe "/scratch/gaussian/jpablo/Gau-28250.inp" -scrdir="/scratch/gaussian/jpablo/"
 Entering Link 1 = /home/apps/g16/g16/l1.exe PID=     28251.
  
 Copyright (c) 1988,1990,1992,1993,1995,1998,2003,2009,2016,
            Gaussian, Inc.  All Rights Reserved.
  
 This is part of the Gaussian(R) 16 program.  It is based on
 the Gaussian(R) 09 system (copyright 2009, Gaussian, Inc.),
 the Gaussian(R) 03 system (copyright 2003, Gaussian, Inc.),
 the Gaussian(R) 98 system (copyright 1998, Gaussian, Inc.),
 the Gaussian(R) 94 system (copyright 1995, Gaussian, Inc.),
 the Gaussian 92(TM) system (copyright 1992, Gaussian, Inc.),
 the Gaussian 90(TM) system (copyright 1990, Gaussian, Inc.),
 the Gaussian 88(TM) system (copyright 1988, Gaussian, Inc.),
 the Gaussian 86(TM) system (copyright 1986, Carnegie Mellon
 University), and the Gaussian 82(TM) system (copyright 1983,
 Carnegie Mellon University). Gaussian is a federally registered
 trademark of Gaussian, Inc.
  
 This software contains proprietary and confidential information,
 including trade secrets, belonging to Gaussian, Inc.
  
 This software is provided under written license and may be
 used, copied, transmitted, or stored only in accord with that
 written license.
  
 The following legend is applicable only to US Government
 contracts under FAR:
  
                    RESTRICTED RIGHTS LEGEND
  
 Use, reproduction and disclosure by the US Government is
 subject to restrictions as set forth in subparagraphs (a)
 and (c) of the Commercial Computer Software - Restricted
 Rights clause in FAR 52.227-19.
  
 Gaussian, Inc.
 340 Quinnipiac St., Bldg. 40, Wallingford CT 06492
  
  
 ---------------------------------------------------------------
 Warning -- This program may not be used in any manner that
 competes with the business of Gaussian, Inc. or will provide
 assistance to any competitor of Gaussian, Inc.  The licensee
 of this program is prohibited from giving any competitor of
 Gaussian, Inc. access to this program.  By using this program,
 the user acknowledges that Gaussian, Inc. is engaged in the
 business of creating and licensing software in the field of
 computational chemistry and represents and warrants to the
 licensee that it is not a competitor of Gaussian, Inc. and that
 it will not use this program in any manner prohibited above.
 ---------------------------------------------------------------
  

 Cite this work as:
 Gaussian 16, Revision A.03,
 M. J. Frisch, G. W. Trucks, H. B. Schlegel, G. E. Scuseria, 
 M. A. Robb, J. R. Cheeseman, G. Scalmani, V. Barone, 
 G. A. Petersson, H. Nakatsuji, X. Li, M. Caricato, A. V. Marenich, 
 J. Bloino, B. G. Janesko, R. Gomperts, B. Mennucci, H. P. Hratchian, 
 J. V. Ortiz, A. F. Izmaylov, J. L. Sonnenberg, D. Williams-Young, 
 F. Ding, F. Lipparini, F. Egidi, J. Goings, B. Peng, A. Petrone, 
 T. Henderson, D. Ranasinghe, V. G. Zakrzewski, J. Gao, N. Rega, 
 G. Zheng, W. Liang, M. Hada, M. Ehara, K. Toyota, R. Fukuda, 
 J. Hasegawa, M. Ishida, T. Nakajima, Y. Honda, O. Kitao, H. Nakai, 
 T. Vreven, K. Throssell, J. A. Montgomery, Jr., J. E. Peralta, 
 F. Ogliaro, M. J. Bearpark, J. J. Heyd, E. N. Brothers, K. N. Kudin, 
 V. N. Staroverov, T. A. Keith, R. Kobayashi, J. Normand, 
 K. Raghavachari, A. P. Rendell, J. C. Burant, S. S. Iyengar, 
 J. Tomasi, M. Cossi, J. M. Millam, M. Klene, C. Adamo, R. Cammi, 
 J. W. Ochterski, R. L. Martin, K. Morokuma, O. Farkas, 
 J. B. Foresman, and D. J. Fox, Gaussian, Inc., Wallingford CT, 2016.
 
 ******************************************
 Gaussian 16:  ES64L-G16RevA.03 25-Dec-2016
                 5-Jun-2019 
 ******************************************
 %chk=tetrameroB_b3lypd3_n07d_ccl4_of.chk
 %mem=2GB
 %nprocshared=8
 Will use up to    8 processors via shared memory.
 ----------------------------------------------------------------------
 #p opt freq b3lyp/gen scrf=(solvent=ccl4,pcm) geom=connectivity empiri
 caldispersion=gd3
 ----------------------------------------------------------------------
 1/18=20,19=15,26=3,38=1,57=2/1,3;
 2/9=110,12=2,17=6,18=5,40=1/2;
 3/5=7,11=2,25=1,30=1,70=2201,71=1,72=11,74=-5,124=31/1,2,3;
 4//1;
 5/5=2,38=5,53=11/2;
 6/7=2,8=2,9=2,10=2,28=1/1;
 7//1,2,3,16;
 1/18=20,19=15,26=3/3(2);
 2/9=110/2;
 99//99;
 2/9=110/2;
 3/5=7,6=1,11=2,25=1,30=1,70=2205,71=1,72=11,74=-5,82=7,124=31/1,2,3;
 4/5=5,16=3,69=1/1;
 5/5=2,38=5,53=11/2;
 7//1,2,3,16;
 1/18=20,19=15,26=3/3(-5);
 2/9=110/2;
 6/7=2,8=2,9=2,10=2,19=2,28=1/1;
 99/9=1/99;
 Leave Link    1 at Wed Jun  5 21:04:49 2019, MaxMem=   268435456 cpu:               0.8 elap:               0.1
 (Enter /home/apps/g16/g16/l101.exe)
 -----
 Title
 -----
 Symbolic Z-matrix:
 Charge =  0 Multiplicity = 1
 C                     1.67477  -4.70924   0.22502 
 C                     2.56547  -4.25629   1.2109 
 C                     2.80715  -2.88434   1.32893 
 C                     2.29756  -1.98539   0.38729 
 C                     1.41245  -2.44866  -0.59287 
 C                     1.16469  -3.82404  -0.72651 
 H                     1.42854  -5.76576   0.1562 
 H                     2.96202  -4.94849   1.94838 
 H                     3.39247  -2.5027    2.16159 
 H                     0.52761  -4.16834  -1.5363 
 C                    -2.3961   -1.58703  -0.6389 
 C                    -1.91896  -2.40705   0.38999 
 C                    -2.81804  -2.91616   1.33178 
 C                    -4.17969  -2.60742   1.25956 
 C                    -4.64258  -1.78314   0.22793 
 C                    -3.75725  -1.27351  -0.72373 
 H                    -0.86074  -2.64358   0.45493 
 H                    -2.44439  -3.55425   2.12851 
 H                    -4.87187  -3.00415   1.99696 
 H                    -5.699    -1.53646   0.15918 
 H                    -4.10135  -0.63633  -1.53352 
 O                    -1.56503  -1.03357  -1.58247 
 H                    -0.65599  -1.40975  -1.54031 
 H                     2.58368  -0.93783   0.41492 
 O                     0.85547  -1.61565  -1.53257 
 H                     1.27397  -0.72431  -1.53063 
 C                    -1.76964   4.73128   0.22661 
 C                    -2.59372   4.26829   1.25836 
 C                    -3.13056   2.95921   1.14247 
 C                    -2.39284   2.00754   0.38901 
 C                    -1.57306   2.48477  -0.64004 
 C                    -1.34553   3.85867  -0.77732 
 H                    -1.59014   5.79772   0.11673 
 H                    -2.99055   4.96045   1.99572 
 H                    -3.8874    2.61277   1.84156 
 H                    -0.84088   4.22242  -1.66793 
 C                     2.4911    1.56469  -0.6415 
 C                     3.8522    1.25102  -0.72652 
 C                     4.73781   1.76108   0.22466 
 C                     4.27524   2.5859    1.256 
 C                     2.91363   2.89476   1.32841 
 C                     2.01427   2.38524   0.38711 
 H                     4.19606   0.61341  -1.53608 
 H                     5.79419   1.51429   0.15577 
 H                     4.96763   2.98297   1.99301 
 H                     2.54021   3.53328   2.12492 
 H                     0.95608   2.62184   0.45222 
 O                     1.65975   1.01079  -1.58458 
 H                     0.75078   1.38714  -1.54251 
 H                    -2.62905   0.94926   0.45407 
 O                    -0.9411    1.63375  -1.51394 
 H                    -1.36543   0.74545  -1.53667 
 
 Add virtual bond connecting atoms O25        and H23        Dist= 2.88D+00.
 Add virtual bond connecting atoms O51        and H49        Dist= 3.23D+00.
 Add virtual bond connecting atoms O48        and H26        Dist= 3.36D+00.
 Add virtual bond connecting atoms H52        and O22        Dist= 3.38D+00.
 ITRead=  0  0  0  0  0  0  0  0  0  0  0  0  0  0  0  0  0  0  0  0
 ITRead=  0  0  0  0  0  0  0  0  0  0  0  0  0  0  0  0  0  0  0  0
 ITRead=  0  0  0  0  0  0  0  0  0  0  0  0
 MicOpt= -1 -1 -1 -1 -1 -1 -1 -1 -1 -1 -1 -1 -1 -1 -1 -1 -1 -1 -1 -1
 MicOpt= -1 -1 -1 -1 -1 -1 -1 -1 -1 -1 -1 -1 -1 -1 -1 -1 -1 -1 -1 -1
 MicOpt= -1 -1 -1 -1 -1 -1 -1 -1 -1 -1 -1 -1
 NAtoms=     52 NQM=       52 NQMF=       0 NMMI=      0 NMMIF=      0
                NMic=       0 NMicF=      0.
                    Isotopes and Nuclear Properties:
 (Nuclear quadrupole moments (NQMom) in fm**2, nuclear magnetic moments (NMagM)
  in nuclear magnetons)

  Atom         1           2           3           4           5           6           7           8           9          10
 IAtWgt=          12          12          12          12          12          12           1           1           1           1
 AtmWgt=  12.0000000  12.0000000  12.0000000  12.0000000  12.0000000  12.0000000   1.0078250   1.0078250   1.0078250   1.0078250
 NucSpn=           0           0           0           0           0           0           1           1           1           1
 AtZEff=  -0.0000000  -0.0000000  -0.0000000  -0.0000000  -0.0000000  -0.0000000  -0.0000000  -0.0000000  -0.0000000  -0.0000000
 NQMom=    0.0000000   0.0000000   0.0000000   0.0000000   0.0000000   0.0000000   0.0000000   0.0000000   0.0000000   0.0000000
 NMagM=    0.0000000   0.0000000   0.0000000   0.0000000   0.0000000   0.0000000   2.7928460   2.7928460   2.7928460   2.7928460
 AtZNuc=   6.0000000   6.0000000   6.0000000   6.0000000   6.0000000   6.0000000   1.0000000   1.0000000   1.0000000   1.0000000

  Atom        11          12          13          14          15          16          17          18          19          20
 IAtWgt=          12          12          12          12          12          12           1           1           1           1
 AtmWgt=  12.0000000  12.0000000  12.0000000  12.0000000  12.0000000  12.0000000   1.0078250   1.0078250   1.0078250   1.0078250
 NucSpn=           0           0           0           0           0           0           1           1           1           1
 AtZEff=  -0.0000000  -0.0000000  -0.0000000  -0.0000000  -0.0000000  -0.0000000  -0.0000000  -0.0000000  -0.0000000  -0.0000000
 NQMom=    0.0000000   0.0000000   0.0000000   0.0000000   0.0000000   0.0000000   0.0000000   0.0000000   0.0000000   0.0000000
 NMagM=    0.0000000   0.0000000   0.0000000   0.0000000   0.0000000   0.0000000   2.7928460   2.7928460   2.7928460   2.7928460
 AtZNuc=   6.0000000   6.0000000   6.0000000   6.0000000   6.0000000   6.0000000   1.0000000   1.0000000   1.0000000   1.0000000

  Atom        21          22          23          24          25          26          27          28          29          30
 IAtWgt=           1          16           1           1          16           1          12          12          12          12
 AtmWgt=   1.0078250  15.9949146   1.0078250   1.0078250  15.9949146   1.0078250  12.0000000  12.0000000  12.0000000  12.0000000
 NucSpn=           1           0           1           1           0           1           0           0           0           0
 AtZEff=  -0.0000000  -0.0000000  -0.0000000  -0.0000000  -0.0000000  -0.0000000  -0.0000000  -0.0000000  -0.0000000  -0.0000000
 NQMom=    0.0000000   0.0000000   0.0000000   0.0000000   0.0000000   0.0000000   0.0000000   0.0000000   0.0000000   0.0000000
 NMagM=    2.7928460   0.0000000   2.7928460   2.7928460   0.0000000   2.7928460   0.0000000   0.0000000   0.0000000   0.0000000
 AtZNuc=   1.0000000   8.0000000   1.0000000   1.0000000   8.0000000   1.0000000   6.0000000   6.0000000   6.0000000   6.0000000

  Atom        31          32          33          34          35          36          37          38          39          40
 IAtWgt=          12          12           1           1           1           1          12          12          12          12
 AtmWgt=  12.0000000  12.0000000   1.0078250   1.0078250   1.0078250   1.0078250  12.0000000  12.0000000  12.0000000  12.0000000
 NucSpn=           0           0           1           1           1           1           0           0           0           0
 AtZEff=  -0.0000000  -0.0000000  -0.0000000  -0.0000000  -0.0000000  -0.0000000  -0.0000000  -0.0000000  -0.0000000  -0.0000000
 NQMom=    0.0000000   0.0000000   0.0000000   0.0000000   0.0000000   0.0000000   0.0000000   0.0000000   0.0000000   0.0000000
 NMagM=    0.0000000   0.0000000   2.7928460   2.7928460   2.7928460   2.7928460   0.0000000   0.0000000   0.0000000   0.0000000
 AtZNuc=   6.0000000   6.0000000   1.0000000   1.0000000   1.0000000   1.0000000   6.0000000   6.0000000   6.0000000   6.0000000

  Atom        41          42          43          44          45          46          47          48          49          50
 IAtWgt=          12          12           1           1           1           1           1          16           1           1
 AtmWgt=  12.0000000  12.0000000   1.0078250   1.0078250   1.0078250   1.0078250   1.0078250  15.9949146   1.0078250   1.0078250
 NucSpn=           0           0           1           1           1           1           1           0           1           1
 AtZEff=  -0.0000000  -0.0000000  -0.0000000  -0.0000000  -0.0000000  -0.0000000  -0.0000000  -0.0000000  -0.0000000  -0.0000000
 NQMom=    0.0000000   0.0000000   0.0000000   0.0000000   0.0000000   0.0000000   0.0000000   0.0000000   0.0000000   0.0000000
 NMagM=    0.0000000   0.0000000   2.7928460   2.7928460   2.7928460   2.7928460   2.7928460   0.0000000   2.7928460   2.7928460
 AtZNuc=   6.0000000   6.0000000   1.0000000   1.0000000   1.0000000   1.0000000   1.0000000   8.0000000   1.0000000   1.0000000

  Atom        51          52
 IAtWgt=          16           1
 AtmWgt=  15.9949146   1.0078250
 NucSpn=           0           1
 AtZEff=  -0.0000000  -0.0000000
 NQMom=    0.0000000   0.0000000
 NMagM=    0.0000000   2.7928460
 AtZNuc=   8.0000000   1.0000000
 Leave Link  101 at Wed Jun  5 21:04:50 2019, MaxMem=   268435456 cpu:               3.6 elap:               0.5
 (Enter /home/apps/g16/g16/l103.exe)

 GradGradGradGradGradGradGradGradGradGradGradGradGradGradGradGradGradGrad
 Berny optimization.
 Initialization pass.
                           ----------------------------
                           !    Initial Parameters    !
                           ! (Angstroms and Degrees)  !
 --------------------------                            --------------------------
 ! Name  Definition              Value          Derivative Info.                !
 --------------------------------------------------------------------------------
 ! R1    R(1,2)                  1.4037         estimate D2E/DX2                !
 ! R2    R(1,6)                  1.3961         estimate D2E/DX2                !
 ! R3    R(1,7)                  1.087          estimate D2E/DX2                !
 ! R4    R(2,3)                  1.3981         estimate D2E/DX2                !
 ! R5    R(2,8)                  1.0864         estimate D2E/DX2                !
 ! R6    R(3,4)                  1.398          estimate D2E/DX2                !
 ! R7    R(3,9)                  1.087          estimate D2E/DX2                !
 ! R8    R(4,5)                  1.3996         estimate D2E/DX2                !
 ! R9    R(4,24)                 1.0863         estimate D2E/DX2                !
 ! R10   R(5,6)                  1.4039         estimate D2E/DX2                !
 ! R11   R(5,25)                 1.3737         estimate D2E/DX2                !
 ! R12   R(6,10)                 1.0864         estimate D2E/DX2                !
 ! R13   R(11,12)                1.3995         estimate D2E/DX2                !
 ! R14   R(11,16)                1.3994         estimate D2E/DX2                !
 ! R15   R(11,22)                1.3738         estimate D2E/DX2                !
 ! R16   R(12,13)                1.398          estimate D2E/DX2                !
 ! R17   R(12,17)                1.0863         estimate D2E/DX2                !
 ! R18   R(13,14)                1.3981         estimate D2E/DX2                !
 ! R19   R(13,18)                1.087          estimate D2E/DX2                !
 ! R20   R(14,15)                1.3993         estimate D2E/DX2                !
 ! R21   R(14,19)                1.0864         estimate D2E/DX2                !
 ! R22   R(15,16)                1.3961         estimate D2E/DX2                !
 ! R23   R(15,20)                1.087          estimate D2E/DX2                !
 ! R24   R(16,21)                1.0864         estimate D2E/DX2                !
 ! R25   R(22,23)                0.9847         estimate D2E/DX2                !
 ! R26   R(22,52)                1.7908         estimate D2E/DX2                !
 ! R27   R(23,25)                1.5254         estimate D2E/DX2                !
 ! R28   R(25,26)                0.9847         estimate D2E/DX2                !
 ! R29   R(26,48)                1.7783         estimate D2E/DX2                !
 ! R30   R(27,28)                1.3993         estimate D2E/DX2                !
 ! R31   R(27,32)                1.3961         estimate D2E/DX2                !
 ! R32   R(27,33)                1.087          estimate D2E/DX2                !
 ! R33   R(28,29)                1.4196         estimate D2E/DX2                !
 ! R34   R(28,34)                1.0864         estimate D2E/DX2                !
 ! R35   R(29,30)                1.4204         estimate D2E/DX2                !
 ! R36   R(29,35)                1.087          estimate D2E/DX2                !
 ! R37   R(30,31)                1.3995         estimate D2E/DX2                !
 ! R38   R(30,50)                1.0863         estimate D2E/DX2                !
 ! R39   R(31,32)                1.3994         estimate D2E/DX2                !
 ! R40   R(31,51)                1.3738         estimate D2E/DX2                !
 ! R41   R(32,36)                1.0864         estimate D2E/DX2                !
 ! R42   R(37,38)                1.3994         estimate D2E/DX2                !
 ! R43   R(37,42)                1.3995         estimate D2E/DX2                !
 ! R44   R(37,48)                1.3738         estimate D2E/DX2                !
 ! R45   R(38,39)                1.3961         estimate D2E/DX2                !
 ! R46   R(38,43)                1.0864         estimate D2E/DX2                !
 ! R47   R(39,40)                1.3993         estimate D2E/DX2                !
 ! R48   R(39,44)                1.087          estimate D2E/DX2                !
 ! R49   R(40,41)                1.3981         estimate D2E/DX2                !
 ! R50   R(40,45)                1.0864         estimate D2E/DX2                !
 ! R51   R(41,42)                1.398          estimate D2E/DX2                !
 ! R52   R(41,46)                1.087          estimate D2E/DX2                !
 ! R53   R(42,47)                1.0863         estimate D2E/DX2                !
 ! R54   R(48,49)                0.9847         estimate D2E/DX2                !
 ! R55   R(49,51)                1.71           estimate D2E/DX2                !
 ! R56   R(51,52)                0.9847         estimate D2E/DX2                !
 ! A1    A(2,1,6)              120.3917         estimate D2E/DX2                !
 ! A2    A(2,1,7)              120.1203         estimate D2E/DX2                !
 ! A3    A(6,1,7)              119.3632         estimate D2E/DX2                !
 ! A4    A(1,2,3)              119.0535         estimate D2E/DX2                !
 ! A5    A(1,2,8)              120.1841         estimate D2E/DX2                !
 ! A6    A(3,2,8)              120.3205         estimate D2E/DX2                !
 ! A7    A(2,3,4)              120.739          estimate D2E/DX2                !
 ! A8    A(2,3,9)              120.1518         estimate D2E/DX2                !
 ! A9    A(4,3,9)              119.1085         estimate D2E/DX2                !
 ! A10   A(3,4,5)              119.3005         estimate D2E/DX2                !
 ! A11   A(3,4,24)             120.4612         estimate D2E/DX2                !
 ! A12   A(5,4,24)             120.2383         estimate D2E/DX2                !
 ! A13   A(4,5,6)              120.1698         estimate D2E/DX2                !
 ! A14   A(4,5,25)             122.3273         estimate D2E/DX2                !
 ! A15   A(6,5,25)             117.2195         estimate D2E/DX2                !
 ! A16   A(1,6,5)              119.4595         estimate D2E/DX2                !
 ! A17   A(1,6,10)             121.4228         estimate D2E/DX2                !
 ! A18   A(5,6,10)             119.0088         estimate D2E/DX2                !
 ! A19   A(12,11,16)           120.4944         estimate D2E/DX2                !
 ! A20   A(12,11,22)           122.3265         estimate D2E/DX2                !
 ! A21   A(16,11,22)           117.1632         estimate D2E/DX2                !
 ! A22   A(11,12,13)           119.2987         estimate D2E/DX2                !
 ! A23   A(11,12,17)           120.2419         estimate D2E/DX2                !
 ! A24   A(13,12,17)           120.4593         estimate D2E/DX2                !
 ! A25   A(12,13,14)           120.739          estimate D2E/DX2                !
 ! A26   A(12,13,18)           119.1089         estimate D2E/DX2                !
 ! A27   A(14,13,18)           120.1513         estimate D2E/DX2                !
 ! A28   A(13,14,15)           119.3642         estimate D2E/DX2                !
 ! A29   A(13,14,19)           120.3197         estimate D2E/DX2                !
 ! A30   A(15,14,19)           120.3161         estimate D2E/DX2                !
 ! A31   A(14,15,16)           120.5176         estimate D2E/DX2                !
 ! A32   A(14,15,20)           120.1196         estimate D2E/DX2                !
 ! A33   A(16,15,20)           119.3625         estimate D2E/DX2                !
 ! A34   A(11,16,15)           119.5846         estimate D2E/DX2                !
 ! A35   A(11,16,21)           118.9925         estimate D2E/DX2                !
 ! A36   A(15,16,21)           121.4229         estimate D2E/DX2                !
 ! A37   A(11,22,23)           112.0335         estimate D2E/DX2                !
 ! A38   A(11,22,52)           116.7493         estimate D2E/DX2                !
 ! A39   A(23,22,52)           105.9933         estimate D2E/DX2                !
 ! A40   A(5,25,23)            119.1469         estimate D2E/DX2                !
 ! A41   A(5,25,26)            112.0381         estimate D2E/DX2                !
 ! A42   A(23,25,26)           107.3944         estimate D2E/DX2                !
 ! A43   A(28,27,32)           120.1526         estimate D2E/DX2                !
 ! A44   A(28,27,33)           119.7621         estimate D2E/DX2                !
 ! A45   A(32,27,33)           119.3633         estimate D2E/DX2                !
 ! A46   A(27,28,29)           117.8806         estimate D2E/DX2                !
 ! A47   A(27,28,34)           120.3157         estimate D2E/DX2                !
 ! A48   A(29,28,34)           120.317          estimate D2E/DX2                !
 ! A49   A(28,29,30)           117.6922         estimate D2E/DX2                !
 ! A50   A(28,29,35)           120.311          estimate D2E/DX2                !
 ! A51   A(30,29,35)           119.2903         estimate D2E/DX2                !
 ! A52   A(29,30,31)           117.7608         estimate D2E/DX2                !
 ! A53   A(29,30,50)           120.532          estimate D2E/DX2                !
 ! A54   A(31,30,50)           120.2392         estimate D2E/DX2                !
 ! A55   A(30,31,32)           120.1425         estimate D2E/DX2                !
 ! A56   A(30,31,51)           121.7316         estimate D2E/DX2                !
 ! A57   A(32,31,51)           118.0992         estimate D2E/DX2                !
 ! A58   A(27,32,31)           119.585          estimate D2E/DX2                !
 ! A59   A(27,32,36)           121.4225         estimate D2E/DX2                !
 ! A60   A(31,32,36)           118.9925         estimate D2E/DX2                !
 ! A61   A(38,37,42)           120.4951         estimate D2E/DX2                !
 ! A62   A(38,37,48)           117.1624         estimate D2E/DX2                !
 ! A63   A(42,37,48)           122.3266         estimate D2E/DX2                !
 ! A64   A(37,38,39)           119.5841         estimate D2E/DX2                !
 ! A65   A(37,38,43)           118.9933         estimate D2E/DX2                !
 ! A66   A(39,38,43)           121.4226         estimate D2E/DX2                !
 ! A67   A(38,39,40)           120.5178         estimate D2E/DX2                !
 ! A68   A(38,39,44)           119.3624         estimate D2E/DX2                !
 ! A69   A(40,39,44)           120.1195         estimate D2E/DX2                !
 ! A70   A(39,40,41)           119.3638         estimate D2E/DX2                !
 ! A71   A(39,40,45)           120.3165         estimate D2E/DX2                !
 ! A72   A(41,40,45)           120.3197         estimate D2E/DX2                !
 ! A73   A(40,41,42)           120.7395         estimate D2E/DX2                !
 ! A74   A(40,41,46)           120.1517         estimate D2E/DX2                !
 ! A75   A(42,41,46)           119.108          estimate D2E/DX2                !
 ! A76   A(37,42,41)           119.2982         estimate D2E/DX2                !
 ! A77   A(37,42,47)           120.2419         estimate D2E/DX2                !
 ! A78   A(41,42,47)           120.4598         estimate D2E/DX2                !
 ! A79   A(26,48,37)           120.2548         estimate D2E/DX2                !
 ! A80   A(26,48,49)            99.8673         estimate D2E/DX2                !
 ! A81   A(37,48,49)           112.0353         estimate D2E/DX2                !
 ! A82   A(31,51,49)           123.7173         estimate D2E/DX2                !
 ! A83   A(31,51,52)           112.0417         estimate D2E/DX2                !
 ! A84   A(49,51,52)           107.2098         estimate D2E/DX2                !
 ! A85   A(22,52,51)           160.8739         estimate D2E/DX2                !
 ! A86   L(22,23,25,17,-1)     189.6225         estimate D2E/DX2                !
 ! A87   L(25,26,48,9,-1)      188.7507         estimate D2E/DX2                !
 ! A88   L(48,49,51,10,-1)     165.8216         estimate D2E/DX2                !
 ! A89   L(22,23,25,17,-2)     191.3891         estimate D2E/DX2                !
 ! A90   L(25,26,48,9,-2)      189.5329         estimate D2E/DX2                !
 ! A91   L(48,49,51,10,-2)     181.6631         estimate D2E/DX2                !
 ! D1    D(6,1,2,3)              7.7355         estimate D2E/DX2                !
 ! D2    D(6,1,2,8)           -179.8665         estimate D2E/DX2                !
 ! D3    D(7,1,2,3)           -176.3514         estimate D2E/DX2                !
 ! D4    D(7,1,2,8)             -3.9533         estimate D2E/DX2                !
 ! D5    D(2,1,6,5)             -7.9908         estimate D2E/DX2                !
 ! D6    D(2,1,6,10)           175.8404         estimate D2E/DX2                !
 ! D7    D(7,1,6,5)            176.0652         estimate D2E/DX2                !
 ! D8    D(7,1,6,10)            -0.1035         estimate D2E/DX2                !
 ! D9    D(1,2,3,4)             -7.4108         estimate D2E/DX2                !
 ! D10   D(1,2,3,9)            172.2746         estimate D2E/DX2                !
 ! D11   D(8,2,3,4)           -179.7982         estimate D2E/DX2                !
 ! D12   D(8,2,3,9)             -0.1128         estimate D2E/DX2                !
 ! D13   D(2,3,4,5)              7.33           estimate D2E/DX2                !
 ! D14   D(2,3,4,24)          -172.7217         estimate D2E/DX2                !
 ! D15   D(9,3,4,5)           -172.3586         estimate D2E/DX2                !
 ! D16   D(9,3,4,24)             7.5896         estimate D2E/DX2                !
 ! D17   D(3,4,5,6)             -7.5146         estimate D2E/DX2                !
 ! D18   D(3,4,5,25)           178.7731         estimate D2E/DX2                !
 ! D19   D(24,4,5,6)           172.537          estimate D2E/DX2                !
 ! D20   D(24,4,5,25)           -1.1753         estimate D2E/DX2                !
 ! D21   D(4,5,6,1)              7.8724         estimate D2E/DX2                !
 ! D22   D(4,5,6,10)          -175.8658         estimate D2E/DX2                !
 ! D23   D(25,5,6,1)          -178.1012         estimate D2E/DX2                !
 ! D24   D(25,5,6,10)           -1.8395         estimate D2E/DX2                !
 ! D25   D(4,5,25,23)         -116.1322         estimate D2E/DX2                !
 ! D26   D(4,5,25,26)           10.3816         estimate D2E/DX2                !
 ! D27   D(6,5,25,23)           69.98           estimate D2E/DX2                !
 ! D28   D(6,5,25,26)         -163.5062         estimate D2E/DX2                !
 ! D29   D(16,11,12,13)          0.2661         estimate D2E/DX2                !
 ! D30   D(16,11,12,17)       -179.6804         estimate D2E/DX2                !
 ! D31   D(22,11,12,13)        178.776          estimate D2E/DX2                !
 ! D32   D(22,11,12,17)         -1.1705         estimate D2E/DX2                !
 ! D33   D(12,11,16,15)          0.077          estimate D2E/DX2                !
 ! D34   D(12,11,16,21)       -179.8848         estimate D2E/DX2                !
 ! D35   D(22,11,16,15)       -178.5077         estimate D2E/DX2                !
 ! D36   D(22,11,16,21)          1.5304         estimate D2E/DX2                !
 ! D37   D(12,11,22,23)         10.3111         estimate D2E/DX2                !
 ! D38   D(12,11,22,52)       -112.1575         estimate D2E/DX2                !
 ! D39   D(16,11,22,23)       -171.1321         estimate D2E/DX2                !
 ! D40   D(16,11,22,52)         66.3994         estimate D2E/DX2                !
 ! D41   D(11,12,13,14)         -0.4254         estimate D2E/DX2                !
 ! D42   D(11,12,13,18)        179.886          estimate D2E/DX2                !
 ! D43   D(17,12,13,14)        179.521          estimate D2E/DX2                !
 ! D44   D(17,12,13,18)         -0.1676         estimate D2E/DX2                !
 ! D45   D(12,13,14,15)          0.2384         estimate D2E/DX2                !
 ! D46   D(12,13,14,19)       -179.7985         estimate D2E/DX2                !
 ! D47   D(18,13,14,15)        179.9238         estimate D2E/DX2                !
 ! D48   D(18,13,14,19)         -0.1131         estimate D2E/DX2                !
 ! D49   D(13,14,15,16)          0.1115         estimate D2E/DX2                !
 ! D50   D(13,14,15,20)        179.9051         estimate D2E/DX2                !
 ! D51   D(19,14,15,16)       -179.8516         estimate D2E/DX2                !
 ! D52   D(19,14,15,20)         -0.058          estimate D2E/DX2                !
 ! D53   D(14,15,16,11)         -0.2677         estimate D2E/DX2                !
 ! D54   D(14,15,16,21)        179.6932         estimate D2E/DX2                !
 ! D55   D(20,15,16,11)        179.9372         estimate D2E/DX2                !
 ! D56   D(20,15,16,21)         -0.1019         estimate D2E/DX2                !
 ! D57   D(11,22,25,5)          -1.113          estimate D2E/DX2                !
 ! D58   D(11,22,25,26)       -127.5503         estimate D2E/DX2                !
 ! D59   D(52,22,25,5)         124.6961         estimate D2E/DX2                !
 ! D60   D(52,22,25,26)         -1.7412         estimate D2E/DX2                !
 ! D61   D(11,22,52,51)        128.7181         estimate D2E/DX2                !
 ! D62   D(23,22,52,51)          3.163          estimate D2E/DX2                !
 ! D63   D(5,25,48,37)          -6.478          estimate D2E/DX2                !
 ! D64   D(5,25,48,49)        -127.3711         estimate D2E/DX2                !
 ! D65   D(23,25,48,37)        123.9276         estimate D2E/DX2                !
 ! D66   D(23,25,48,49)          3.0345         estimate D2E/DX2                !
 ! D67   D(32,27,28,29)         -8.9218         estimate D2E/DX2                !
 ! D68   D(32,27,28,34)       -175.0584         estimate D2E/DX2                !
 ! D69   D(33,27,28,29)        161.2827         estimate D2E/DX2                !
 ! D70   D(33,27,28,34)         -4.854          estimate D2E/DX2                !
 ! D71   D(28,27,32,31)         -9.8183         estimate D2E/DX2                !
 ! D72   D(28,27,32,36)        170.1397         estimate D2E/DX2                !
 ! D73   D(33,27,32,31)        179.9383         estimate D2E/DX2                !
 ! D74   D(33,27,32,36)         -0.1037         estimate D2E/DX2                !
 ! D75   D(27,28,29,30)         27.7551         estimate D2E/DX2                !
 ! D76   D(27,28,29,35)       -171.011          estimate D2E/DX2                !
 ! D77   D(34,28,29,30)       -166.1085         estimate D2E/DX2                !
 ! D78   D(34,28,29,35)         -4.8745         estimate D2E/DX2                !
 ! D79   D(28,29,30,31)        -27.914          estimate D2E/DX2                !
 ! D80   D(28,29,30,50)        165.8755         estimate D2E/DX2                !
 ! D81   D(35,29,30,31)        170.6546         estimate D2E/DX2                !
 ! D82   D(35,29,30,50)          4.4441         estimate D2E/DX2                !
 ! D83   D(29,30,31,32)          9.288          estimate D2E/DX2                !
 ! D84   D(29,30,31,51)       -172.628          estimate D2E/DX2                !
 ! D85   D(50,30,31,32)        175.5405         estimate D2E/DX2                !
 ! D86   D(50,30,31,51)         -6.3755         estimate D2E/DX2                !
 ! D87   D(30,31,32,27)          9.6243         estimate D2E/DX2                !
 ! D88   D(30,31,32,36)       -170.3348         estimate D2E/DX2                !
 ! D89   D(51,31,32,27)       -168.5284         estimate D2E/DX2                !
 ! D90   D(51,31,32,36)         11.5126         estimate D2E/DX2                !
 ! D91   D(30,31,51,49)       -110.7551         estimate D2E/DX2                !
 ! D92   D(30,31,51,52)         20.0847         estimate D2E/DX2                !
 ! D93   D(32,31,51,49)         67.3666         estimate D2E/DX2                !
 ! D94   D(32,31,51,52)       -161.7936         estimate D2E/DX2                !
 ! D95   D(42,37,38,39)          0.0749         estimate D2E/DX2                !
 ! D96   D(42,37,38,43)       -179.8857         estimate D2E/DX2                !
 ! D97   D(48,37,38,39)       -178.5073         estimate D2E/DX2                !
 ! D98   D(48,37,38,43)          1.532          estimate D2E/DX2                !
 ! D99   D(38,37,42,41)          0.2679         estimate D2E/DX2                !
 ! D100  D(38,37,42,47)       -179.6774         estimate D2E/DX2                !
 ! D101  D(48,37,42,41)        178.7751         estimate D2E/DX2                !
 ! D102  D(48,37,42,47)         -1.1701         estimate D2E/DX2                !
 ! D103  D(38,37,48,26)         72.1265         estimate D2E/DX2                !
 ! D104  D(38,37,48,49)       -171.1229         estimate D2E/DX2                !
 ! D105  D(42,37,48,26)       -106.4278         estimate D2E/DX2                !
 ! D106  D(42,37,48,49)         10.3228         estimate D2E/DX2                !
 ! D107  D(37,38,39,40)         -0.2661         estimate D2E/DX2                !
 ! D108  D(37,38,39,44)        179.9374         estimate D2E/DX2                !
 ! D109  D(43,38,39,40)        179.6936         estimate D2E/DX2                !
 ! D110  D(43,38,39,44)         -0.1029         estimate D2E/DX2                !
 ! D111  D(38,39,40,41)          0.1108         estimate D2E/DX2                !
 ! D112  D(38,39,40,45)       -179.8507         estimate D2E/DX2                !
 ! D113  D(44,39,40,41)        179.9058         estimate D2E/DX2                !
 ! D114  D(44,39,40,45)         -0.0558         estimate D2E/DX2                !
 ! D115  D(39,40,41,42)          0.2387         estimate D2E/DX2                !
 ! D116  D(39,40,41,46)        179.9242         estimate D2E/DX2                !
 ! D117  D(45,40,41,42)       -179.7997         estimate D2E/DX2                !
 ! D118  D(45,40,41,46)         -0.1142         estimate D2E/DX2                !
 ! D119  D(40,41,42,37)         -0.4263         estimate D2E/DX2                !
 ! D120  D(40,41,42,47)        179.5189         estimate D2E/DX2                !
 ! D121  D(46,41,42,37)        179.8851         estimate D2E/DX2                !
 ! D122  D(46,41,42,47)         -0.1698         estimate D2E/DX2                !
 ! D123  D(26,48,51,31)        126.8439         estimate D2E/DX2                !
 ! D124  D(26,48,51,52)         -3.4378         estimate D2E/DX2                !
 ! D125  D(37,48,51,31)          1.2892         estimate D2E/DX2                !
 ! D126  D(37,48,51,52)       -128.9925         estimate D2E/DX2                !
 ! D127  D(31,51,52,22)       -138.0399         estimate D2E/DX2                !
 ! D128  D(49,51,52,22)          0.7535         estimate D2E/DX2                !
 --------------------------------------------------------------------------------
 Trust Radius=3.00D-01 FncErr=1.00D-07 GrdErr=1.00D-06 EigMax=2.50D+02 EigMin=1.00D-04
 Number of steps in this run=    285 maximum allowed number of steps=    312.
 GradGradGradGradGradGradGradGradGradGradGradGradGradGradGradGradGradGrad

 Leave Link  103 at Wed Jun  5 21:04:50 2019, MaxMem=   268435456 cpu:               0.2 elap:               0.0
 (Enter /home/apps/g16/g16/l202.exe)
 Stoichiometry    C24H24O4
 Framework group  C1[X(C24H24O4)]
 Deg. of freedom   150
 Full point group                 C1      NOp   1
 Largest Abelian subgroup         C1      NOp   1
 Largest concise Abelian subgroup C1      NOp   1
                         Standard orientation:                         
 ---------------------------------------------------------------------
 Center     Atomic      Atomic             Coordinates (Angstroms)
 Number     Number       Type             X           Y           Z
 ---------------------------------------------------------------------
      1          6           0        4.637642    1.883218    0.207917
      2          6           0        4.151386    2.756569    1.193454
      3          6           0        2.770951    2.940801    1.316133
      4          6           0        1.890688    2.391644    0.379094
      5          6           0        2.387043    1.524321   -0.600774
      6          6           0        3.771101    1.334124   -0.739063
      7          1           0        5.703298    1.681337    0.135653
      8          1           0        4.829060    3.183613    1.927376
      9          1           0        2.368179    3.511654    2.148877
     10          1           0        4.138820    0.710046   -1.548682
     11          6           0        1.685734   -2.317106   -0.634738
     12          6           0        2.488821   -1.803465    0.389925
     13          6           0        3.038670   -2.678081    1.331848
     14          6           0        2.787045   -4.051653    1.263946
     15          6           0        1.979094   -4.551242    0.236526
     16          6           0        1.429266   -3.690410   -0.715233
     17          1           0        2.681000   -0.736101    0.451523
     18          1           0        3.663470   -2.276040    2.125284
     19          1           0        3.215180   -4.724768    2.001430
     20          1           0        1.776685   -5.617243    0.171153
     21          1           0        0.804087   -4.062921   -1.521800
     22          8           0        1.094420   -1.512304   -1.578115
     23          1           0        1.432297   -0.588188   -1.539484
     24          1           0        0.832156    2.633654    0.410037
     25          8           0        1.574651    0.930585   -1.536014
     26          1           0        0.666564    1.311353   -1.531657
     27          6           0       -4.650041   -1.953998    0.253318
     28          6           0       -4.149084   -2.755393    1.285202
     29          6           0       -2.819077   -3.237153    1.165580
     30          6           0       -1.901979   -2.462038    0.406809
     31          6           0       -2.416973   -1.665531   -0.622311
     32          6           0       -3.799706   -1.496153   -0.754893
     33          1           0       -5.723477   -1.819648    0.147077
     34          1           0       -4.821260   -3.179077    2.026100
     35          1           0       -2.438616   -3.977076    1.865097
     36          1           0       -4.187594   -1.009391   -1.645283
     37          6           0       -1.668171    2.433617   -0.636648
     38          6           0       -1.412178    3.806459   -0.726002
     39          6           0       -1.955411    4.672246    0.225061
     40          6           0       -2.756285    4.178042    1.260592
     41          6           0       -3.007497    2.804861    1.337319
     42          6           0       -2.464191    1.925338    0.396170
     43          1           0       -0.792549    4.174754   -1.538770
     44          1           0       -1.753399    5.737872    0.152795
     45          1           0       -3.179316    4.854989    1.997504
     46          1           0       -3.626844    2.406961    2.137109
     47          1           0       -2.655960    0.858322    0.464621
     48          8           0       -1.083383    1.623900   -1.579903
     49          1           0       -1.421121    0.700056   -1.534305
     50          1           0       -0.834490   -2.653504    0.468394
     51          8           0       -1.596442   -1.000605   -1.500896
     52          1           0       -0.691223   -1.387362   -1.526020
 ---------------------------------------------------------------------
 Rotational constants (GHZ):           0.1597976           0.1571070           0.0911162
 Leave Link  202 at Wed Jun  5 21:04:50 2019, MaxMem=   268435456 cpu:               0.0 elap:               0.0
 (Enter /home/apps/g16/g16/l301.exe)
 General basis read from cards:  (5D, 7F)
 Centers:       7      8      9     10     17     18     19     20     21     23
 Centers:      24     26     33     34     35     36     43     44     45     46
 Centers:      47     49     50     52
 6-31G
 P 1 1.00 0.000000000000
     Exponent=  7.5000000000D-01 Coefficients=  1.0000000000D+00
 ****
 Centers:       1      2      3      4      5      6     11     12     13     14
 Centers:      15     16     27     28     29     30     31     32     37     38
 Centers:      39     40     41     42
 6-31G
 S 1 1.00 0.000000000000
     Exponent=  7.5000000000D+00 Coefficients=  1.0000000000D+00
 P 1 1.00 0.000000000000
     Exponent=  5.0000000000D-02 Coefficients=  1.0000000000D+00
 D 1 1.00 0.000000000000
     Exponent=  8.2000000000D-01 Coefficients=  1.0000000000D+00
 ****
 Centers:      22     25     48     51
 6-31G
 S 1 1.00
     Exponent=  1.5100000000D+01 Coefficients=  1.0000000000D+00
 P 1 1.00 0.000000000000
     Exponent=  6.5000000000D-02 Coefficients=  1.0000000000D+00
 D 1 1.00 0.000000000000
     Exponent=  1.1900000000D+00 Coefficients=  1.0000000000D+00
 D 1 1.00 0.000000000000
     Exponent=  1.8000000000D-01 Coefficients=  1.0000000000D+00
 ****
 Ernie: Thresh=  0.10000D-02 Tol=  0.10000D-05 Strict=F.
 There are   676 symmetry adapted cartesian basis functions of A   symmetry.
 There are   644 symmetry adapted basis functions of A   symmetry.
   644 basis functions,  1088 primitive gaussians,   676 cartesian basis functions
   100 alpha electrons      100 beta electrons
       nuclear repulsion energy      2488.1494202652 Hartrees.
 IExCor=  402 DFT=T Ex+Corr=B3LYP ExCW=0 ScaHFX=  0.200000
 ScaDFX=  0.800000  0.720000  1.000000  0.810000 ScalE2=  1.000000  1.000000
 IRadAn=      5 IRanWt=     -1 IRanGd=            0 ICorTp=0 IEmpDi=131
 NAtoms=   52 NActive=   52 NUniq=   52 SFac= 1.00D+00 NAtFMM=   60 NAOKFM=F Big=F
 Integral buffers will be    131072 words long.
 Raffenetti 2 integral format.
 Two-electron integral symmetry is turned on.
 R6Disp:  Grimme-D3 Dispersion energy=       -0.0524571266 Hartrees.
 Nuclear repulsion after empirical dispersion term =     2488.0969631386 Hartrees.
 ------------------------------------------------------------------------------
 Polarizable Continuum Model (PCM)
 =================================
 Model                : PCM.
 Atomic radii         : UFF (Universal Force Field).
 Polarization charges : Total charges.
 Charge compensation  : None.
 Solution method      : On-the-fly selection.
 Cavity type          : Scaled VdW (van der Waals Surface) (Alpha=1.100).
 Cavity algorithm     : GePol (No added spheres)
                        Default sphere list used, NSphG=   52.
                        Lebedev-Laikov grids with approx.  5.0 points / Ang**2.
                        Smoothing algorithm: York/Karplus (Gamma=1.0000).
                        Polarization charges: spherical gaussians, with
                                              point-specific exponents (IZeta= 3).
                        Self-potential: point-specific (ISelfS= 7).
                        Self-field    : sphere-specific E.n sum rule (ISelfD= 2).
 1st derivatives      : Analytical E(r).r(x)/FMM algorithm (CHGder, D1EAlg=3).
                        Cavity 1st derivative terms included.
 Solvent              : CarbonTetraChloride, Eps=   2.228000 Eps(inf)=   2.131892
 ------------------------------------------------------------------------------
 GePol: Number of generator spheres                  =      52
 GePol: Total number of spheres                      =      52
 GePol: Number of exposed spheres                    =      52 (100.00%)
 GePol: Number of points                             =    3960
 GePol: Average weight of points                     =       0.12
 GePol: Minimum weight of points                     =   0.14D-11
 GePol: Maximum weight of points                     =    0.20577
 GePol: Number of points with low weight             =     317
 GePol: Fraction of low-weight points (<1% of avg)   =       8.01%
 GePol: Cavity surface area                          =    493.426 Ang**2
 GePol: Cavity volume                                =    545.101 Ang**3
 Leave Link  301 at Wed Jun  5 21:04:50 2019, MaxMem=   268435456 cpu:               1.5 elap:               0.2
 (Enter /home/apps/g16/g16/l302.exe)
 NPDir=0 NMtPBC=     1 NCelOv=     1 NCel=       1 NClECP=     1 NCelD=      1
         NCelK=      1 NCelE2=     1 NClLst=     1 CellRange=     0.0.
 One-electron integrals computed using PRISM.
 One-electron integral symmetry used in STVInt
 NBasis=   644 RedAO= T EigKep=  1.79D-05  NBF=   644
 NBsUse=   644 1.00D-06 EigRej= -1.00D+00 NBFU=   644
 Precomputing XC quadrature grid using
 IXCGrd= 4 IRadAn=           5 IRanWt=          -1 IRanGd=           0 AccXCQ= 0.00D+00.
 Generated NRdTot=       0 NPtTot=           0 NUsed=           0 NTot=          32
 NSgBfM=   653   653   653   653   653 MxSgAt=    52 MxSgA2=    52.
 Leave Link  302 at Wed Jun  5 21:04:54 2019, MaxMem=   268435456 cpu:              34.3 elap:               4.3
 (Enter /home/apps/g16/g16/l303.exe)
 DipDrv:  MaxL=1.
 Leave Link  303 at Wed Jun  5 21:04:55 2019, MaxMem=   268435456 cpu:               1.9 elap:               0.3
 (Enter /home/apps/g16/g16/l401.exe)
 ExpMin= 5.00D-02 ExpMax= 5.48D+03 ExpMxC= 8.25D+02 IAcc=3 IRadAn=         5 AccDes= 0.00D+00
 Harris functional with IExCor=  402 and IRadAn=       5 diagonalized for initial guess.
 HarFok:  IExCor=  402 AccDes= 0.00D+00 IRadAn=         5 IDoV= 1 UseB2=F ITyADJ=14
 ICtDFT=  3500011 ScaDFX=  1.000000  1.000000  1.000000  1.000000
 FoFCou: FMM=F IPFlag=           0 FMFlag=      100000 FMFlg1=           0
         NFxFlg=           0 DoJE=T BraDBF=F KetDBF=T FulRan=T
         wScrn=  0.000000 ICntrl=       500 IOpCl=  0 I1Cent=   200000004 NGrid=           0
         NMat0=    1 NMatS0=      1 NMatT0=    0 NMatD0=    1 NMtDS0=    0 NMtDT0=    0
 Petite list used in FoFCou.
 Harris En= -1230.04782323909    
 JPrj=0 DoOrth=F DoCkMO=F.
 Leave Link  401 at Wed Jun  5 21:05:24 2019, MaxMem=   268435456 cpu:             229.8 elap:              28.8
 (Enter /home/apps/g16/g16/l502.exe)
 Integral symmetry usage will be decided dynamically.
 Closed shell SCF:
 Using DIIS extrapolation, IDIIS=  1040.
 NGot=   268435456 LenX=   267509472 LenY=   267051820
 Requested convergence on RMS density matrix=1.00D-08 within 128 cycles.
 Requested convergence on MAX density matrix=1.00D-06.
 Requested convergence on             energy=1.00D-06.
 No special actions if energy rises.
 Fock matrices will be formed incrementally for  20 cycles.

 Cycle   1  Pass 1  IDiag  1:
 FoFJK:  IHMeth= 1 ICntrl=       0 DoSepK=F KAlg= 0 I1Cent=           0 FoldK=F
 IRaf= 710000000 NMat=       1 IRICut=       1 DoRegI=T DoRafI=F ISym2E= 0 IDoP0=0 IntGTp=1.
 FoFCou: FMM=F IPFlag=           0 FMFlag=      100000 FMFlg1=           0
         NFxFlg=           0 DoJE=F BraDBF=F KetDBF=F FulRan=T
         wScrn=  0.000000 ICntrl=         0 IOpCl=  0 I1Cent=           0 NGrid=           0
         NMat0=    1 NMatS0=      1 NMatT0=    0 NMatD0=    1 NMtDS0=    0 NMtDT0=    0
 Symmetry not used in FoFCou.
 Inv3:  Mode=1 IEnd=    47044800.
 Iteration    1 A*A^-1 deviation from unit magnitude is 1.04D-14 for    955.
 Iteration    1 A*A^-1 deviation from orthogonality  is 2.97D-15 for   3105   3030.
 Iteration    1 A^-1*A deviation from unit magnitude is 9.88D-15 for    981.
 Iteration    1 A^-1*A deviation from orthogonality  is 2.39D-15 for   2555   1490.
 E= -1229.39804490168    
 DIIS: error= 1.52D-02 at cycle   1 NSaved=   1.
 NSaved= 1 IEnMin= 1 EnMin= -1229.39804490168     IErMin= 1 ErrMin= 1.52D-02
 ErrMax= 1.52D-02  0.00D+00 EMaxC= 1.00D-01 BMatC= 5.96D-01 BMatP= 5.96D-01
 IDIUse=3 WtCom= 8.48D-01 WtEn= 1.52D-01
 Coeff-Com:  0.100D+01
 Coeff-En:   0.100D+01
 Coeff:      0.100D+01
 Gap=     0.221 Goal=   None    Shift=    0.000
 GapD=    0.221 DampG=1.000 DampE=0.500 DampFc=0.5000 IDamp=-1.
 Damping current iteration by 5.00D-01
 RMSDP=3.14D-03 MaxDP=9.41D-02              OVMax= 2.08D-01

 Cycle   2  Pass 1  IDiag  1:
 RMSU=  1.55D-03    CP:  9.76D-01
 E= -1229.67761806197     Delta-E=       -0.279573160289 Rises=F Damp=T
 DIIS: error= 4.29D-03 at cycle   2 NSaved=   2.
 NSaved= 2 IEnMin= 2 EnMin= -1229.67761806197     IErMin= 2 ErrMin= 4.29D-03
 ErrMax= 4.29D-03  0.00D+00 EMaxC= 1.00D-01 BMatC= 3.10D-02 BMatP= 5.96D-01
 IDIUse=3 WtCom= 9.57D-01 WtEn= 4.29D-02
 Coeff-Com:  0.537D-01 0.946D+00
 Coeff-En:   0.110D+00 0.890D+00
 Coeff:      0.561D-01 0.944D+00
 Gap=     0.227 Goal=   None    Shift=    0.000
 RMSDP=1.04D-03 MaxDP=3.30D-02 DE=-2.80D-01 OVMax= 1.62D-01

 Cycle   3  Pass 1  IDiag  1:
 RMSU=  9.74D-04    CP:  9.64D-01  7.76D-01
 E= -1230.00739820929     Delta-E=       -0.329780147321 Rises=F Damp=F
 DIIS: error= 3.39D-03 at cycle   3 NSaved=   3.
 NSaved= 3 IEnMin= 3 EnMin= -1230.00739820929     IErMin= 3 ErrMin= 3.39D-03
 ErrMax= 3.39D-03  0.00D+00 EMaxC= 1.00D-01 BMatC= 2.51D-02 BMatP= 3.10D-02
 IDIUse=3 WtCom= 9.66D-01 WtEn= 3.39D-02
 Coeff-Com: -0.163D-01 0.470D+00 0.546D+00
 Coeff-En:   0.000D+00 0.000D+00 0.100D+01
 Coeff:     -0.157D-01 0.454D+00 0.562D+00
 Gap=     0.204 Goal=   None    Shift=    0.000
 RMSDP=4.52D-04 MaxDP=2.27D-02 DE=-3.30D-01 OVMax= 6.74D-02

 Cycle   4  Pass 1  IDiag  1:
 RMSU=  3.62D-04    CP:  9.64D-01  8.64D-01  7.59D-01
 E= -1230.02690224563     Delta-E=       -0.019504036340 Rises=F Damp=F
 DIIS: error= 2.54D-03 at cycle   4 NSaved=   4.
 NSaved= 4 IEnMin= 4 EnMin= -1230.02690224563     IErMin= 4 ErrMin= 2.54D-03
 ErrMax= 2.54D-03  0.00D+00 EMaxC= 1.00D-01 BMatC= 7.97D-03 BMatP= 2.51D-02
 IDIUse=3 WtCom= 9.75D-01 WtEn= 2.54D-02
 Coeff-Com: -0.219D-01 0.129D+00 0.374D+00 0.519D+00
 Coeff-En:   0.000D+00 0.000D+00 0.276D+00 0.724D+00
 Coeff:     -0.213D-01 0.126D+00 0.371D+00 0.524D+00
 Gap=     0.200 Goal=   None    Shift=    0.000
 RMSDP=1.93D-04 MaxDP=6.51D-03 DE=-1.95D-02 OVMax= 2.44D-02

 Cycle   5  Pass 1  IDiag  1:
 RMSU=  9.51D-05    CP:  9.64D-01  8.58D-01  7.85D-01  5.41D-01
 E= -1230.03595562017     Delta-E=       -0.009053374537 Rises=F Damp=F
 DIIS: error= 2.54D-04 at cycle   5 NSaved=   5.
 NSaved= 5 IEnMin= 5 EnMin= -1230.03595562017     IErMin= 5 ErrMin= 2.54D-04
 ErrMax= 2.54D-04  0.00D+00 EMaxC= 1.00D-01 BMatC= 9.81D-05 BMatP= 7.97D-03
 IDIUse=3 WtCom= 9.97D-01 WtEn= 2.54D-03
 Coeff-Com: -0.681D-02 0.137D-01 0.829D-01 0.172D+00 0.739D+00
 Coeff-En:   0.000D+00 0.000D+00 0.000D+00 0.000D+00 0.100D+01
 Coeff:     -0.679D-02 0.136D-01 0.827D-01 0.171D+00 0.739D+00
 Gap=     0.200 Goal=   None    Shift=    0.000
 RMSDP=2.58D-05 MaxDP=1.11D-03 DE=-9.05D-03 OVMax= 2.89D-03

 Cycle   6  Pass 1  IDiag  1:
 RMSU=  1.89D-05    CP:  9.64D-01  8.62D-01  7.87D-01  5.72D-01  8.77D-01
 E= -1230.03604139577     Delta-E=       -0.000085775600 Rises=F Damp=F
 DIIS: error= 9.61D-05 at cycle   6 NSaved=   6.
 NSaved= 6 IEnMin= 6 EnMin= -1230.03604139577     IErMin= 6 ErrMin= 9.61D-05
 ErrMax= 9.61D-05  0.00D+00 EMaxC= 1.00D-01 BMatC= 2.23D-05 BMatP= 9.81D-05
 IDIUse=1 WtCom= 1.00D+00 WtEn= 0.00D+00
 Coeff-Com: -0.310D-02 0.316D-02 0.325D-01 0.757D-01 0.420D+00 0.472D+00
 Coeff:     -0.310D-02 0.316D-02 0.325D-01 0.757D-01 0.420D+00 0.472D+00
 Gap=     0.200 Goal=   None    Shift=    0.000
 RMSDP=9.05D-06 MaxDP=4.40D-04 DE=-8.58D-05 OVMax= 9.31D-04

 Cycle   7  Pass 1  IDiag  1:
 RMSU=  4.94D-06    CP:  9.64D-01  8.61D-01  7.90D-01  5.73D-01  8.56D-01
                    CP:  6.39D-01
 E= -1230.03606251578     Delta-E=       -0.000021120013 Rises=F Damp=F
 DIIS: error= 1.15D-05 at cycle   7 NSaved=   7.
 NSaved= 7 IEnMin= 7 EnMin= -1230.03606251578     IErMin= 7 ErrMin= 1.15D-05
 ErrMax= 1.15D-05  0.00D+00 EMaxC= 1.00D-01 BMatC= 3.53D-07 BMatP= 2.23D-05
 IDIUse=1 WtCom= 1.00D+00 WtEn= 0.00D+00
 Coeff-Com: -0.604D-03 0.461D-04 0.609D-02 0.153D-01 0.996D-01 0.163D+00
 Coeff-Com:  0.717D+00
 Coeff:     -0.604D-03 0.461D-04 0.609D-02 0.153D-01 0.996D-01 0.163D+00
 Coeff:      0.717D+00
 Gap=     0.200 Goal=   None    Shift=    0.000
 RMSDP=1.58D-06 MaxDP=8.83D-05 DE=-2.11D-05 OVMax= 1.85D-04

 Cycle   8  Pass 1  IDiag  1:
 RMSU=  1.39D-06    CP:  9.64D-01  8.61D-01  7.90D-01  5.72D-01  8.60D-01
                    CP:  6.57D-01  8.93D-01
 E= -1230.03606269536     Delta-E=       -0.000000179577 Rises=F Damp=F
 DIIS: error= 8.29D-06 at cycle   8 NSaved=   8.
 NSaved= 8 IEnMin= 8 EnMin= -1230.03606269536     IErMin= 8 ErrMin= 8.29D-06
 ErrMax= 8.29D-06  0.00D+00 EMaxC= 1.00D-01 BMatC= 1.59D-07 BMatP= 3.53D-07
 IDIUse=1 WtCom= 1.00D+00 WtEn= 0.00D+00
 Coeff-Com: -0.750D-04-0.319D-03 0.712D-03 0.240D-02 0.231D-01 0.589D-01
 Coeff-Com:  0.451D+00 0.464D+00
 Coeff:     -0.750D-04-0.319D-03 0.712D-03 0.240D-02 0.231D-01 0.589D-01
 Coeff:      0.451D+00 0.464D+00
 Gap=     0.200 Goal=   None    Shift=    0.000
 RMSDP=7.22D-07 MaxDP=4.07D-05 DE=-1.80D-07 OVMax= 9.81D-05

 Cycle   9  Pass 1  IDiag  1:
 RMSU=  3.89D-07    CP:  9.64D-01  8.61D-01  7.90D-01  5.72D-01  8.62D-01
                    CP:  6.57D-01  9.32D-01  5.97D-01
 E= -1230.03606284758     Delta-E=       -0.000000152223 Rises=F Damp=F
 DIIS: error= 9.57D-07 at cycle   9 NSaved=   9.
 NSaved= 9 IEnMin= 9 EnMin= -1230.03606284758     IErMin= 9 ErrMin= 9.57D-07
 ErrMax= 9.57D-07  0.00D+00 EMaxC= 1.00D-01 BMatC= 3.21D-09 BMatP= 1.59D-07
 IDIUse=1 WtCom= 1.00D+00 WtEn= 0.00D+00
 Coeff-Com:  0.246D-04-0.109D-03-0.217D-03-0.376D-03 0.315D-03 0.880D-02
 Coeff-Com:  0.103D+00 0.173D+00 0.716D+00
 Coeff:      0.246D-04-0.109D-03-0.217D-03-0.376D-03 0.315D-03 0.880D-02
 Coeff:      0.103D+00 0.173D+00 0.716D+00
 Gap=     0.200 Goal=   None    Shift=    0.000
 RMSDP=1.69D-07 MaxDP=8.10D-06 DE=-1.52D-07 OVMax= 1.99D-05

 Cycle  10  Pass 1  IDiag  1:
 RMSU=  1.32D-07    CP:  9.64D-01  8.61D-01  7.90D-01  5.73D-01  8.61D-01
                    CP:  6.58D-01  9.40D-01  6.33D-01  8.15D-01
 E= -1230.03606285040     Delta-E=       -0.000000002818 Rises=F Damp=F
 DIIS: error= 5.60D-07 at cycle  10 NSaved=  10.
 NSaved=10 IEnMin=10 EnMin= -1230.03606285040     IErMin=10 ErrMin= 5.60D-07
 ErrMax= 5.60D-07  0.00D+00 EMaxC= 1.00D-01 BMatC= 5.16D-10 BMatP= 3.21D-09
 IDIUse=1 WtCom= 1.00D+00 WtEn= 0.00D+00
 Coeff-Com:  0.162D-04-0.338D-04-0.135D-03-0.327D-03-0.111D-02 0.120D-02
 Coeff-Com:  0.229D-01 0.548D-01 0.358D+00 0.564D+00
 Coeff:      0.162D-04-0.338D-04-0.135D-03-0.327D-03-0.111D-02 0.120D-02
 Coeff:      0.229D-01 0.548D-01 0.358D+00 0.564D+00
 Gap=     0.200 Goal=   None    Shift=    0.000
 RMSDP=5.70D-08 MaxDP=2.49D-06 DE=-2.82D-09 OVMax= 6.73D-06

 Cycle  11  Pass 1  IDiag  1:
 RMSU=  4.10D-08    CP:  9.64D-01  8.61D-01  7.90D-01  5.72D-01  8.61D-01
                    CP:  6.59D-01  9.41D-01  6.34D-01  8.65D-01  7.57D-01
 E= -1230.03606285087     Delta-E=       -0.000000000470 Rises=F Damp=F
 DIIS: error= 2.82D-07 at cycle  11 NSaved=  11.
 NSaved=11 IEnMin=11 EnMin= -1230.03606285087     IErMin=11 ErrMin= 2.82D-07
 ErrMax= 2.82D-07  0.00D+00 EMaxC= 1.00D-01 BMatC= 9.95D-11 BMatP= 5.16D-10
 IDIUse=1 WtCom= 1.00D+00 WtEn= 0.00D+00
 Coeff-Com:  0.609D-05-0.313D-05-0.450D-04-0.145D-03-0.739D-03-0.670D-03
 Coeff-Com: -0.410D-02 0.291D-02 0.983D-01 0.339D+00 0.565D+00
 Coeff:      0.609D-05-0.313D-05-0.450D-04-0.145D-03-0.739D-03-0.670D-03
 Coeff:     -0.410D-02 0.291D-02 0.983D-01 0.339D+00 0.565D+00
 Gap=     0.200 Goal=   None    Shift=    0.000
 RMSDP=2.04D-08 MaxDP=9.21D-07 DE=-4.70D-10 OVMax= 2.47D-06

 Cycle  12  Pass 1  IDiag  1:
 RMSU=  1.35D-08    CP:  9.64D-01  8.61D-01  7.90D-01  5.72D-01  8.61D-01
                    CP:  6.59D-01  9.41D-01  6.37D-01  8.74D-01  7.99D-01
                    CP:  7.55D-01
 E= -1230.03606285113     Delta-E=       -0.000000000262 Rises=F Damp=F
 DIIS: error= 4.97D-08 at cycle  12 NSaved=  12.
 NSaved=12 IEnMin=12 EnMin= -1230.03606285113     IErMin=12 ErrMin= 4.97D-08
 ErrMax= 4.97D-08  0.00D+00 EMaxC= 1.00D-01 BMatC= 4.44D-12 BMatP= 9.95D-11
 IDIUse=1 WtCom= 1.00D+00 WtEn= 0.00D+00
 Coeff-Com:  0.175D-05 0.829D-06-0.110D-04-0.453D-04-0.277D-03-0.395D-03
 Coeff-Com: -0.386D-02-0.331D-02 0.180D-01 0.117D+00 0.257D+00 0.616D+00
 Coeff:      0.175D-05 0.829D-06-0.110D-04-0.453D-04-0.277D-03-0.395D-03
 Coeff:     -0.386D-02-0.331D-02 0.180D-01 0.117D+00 0.257D+00 0.616D+00
 Gap=     0.200 Goal=   None    Shift=    0.000
 RMSDP=6.40D-09 MaxDP=2.50D-07 DE=-2.62D-10 OVMax= 4.45D-07

 Error on total polarization charges =  0.01839
 SCF Done:  E(RB3LYP) =  -1230.03606285     A.U. after   12 cycles
            NFock= 12  Conv=0.64D-08     -V/T= 2.0046
 KE= 1.224371389711D+03 PE=-7.840529218286D+03 EE= 2.898024802584D+03
 Leave Link  502 at Wed Jun  5 21:34:41 2019, MaxMem=   268435456 cpu:           14004.4 elap:            1757.7
 (Enter /home/apps/g16/g16/l601.exe)
 Copying SCF densities to generalized density rwf, IOpCl= 0 IROHF=0.

 **********************************************************************

            Population analysis using the SCF density.

 **********************************************************************

 Orbital symmetries:
       Occupied  (A) (A) (A) (A) (A) (A) (A) (A) (A) (A) (A) (A)
                 (A) (A) (A) (A) (A) (A) (A) (A) (A) (A) (A) (A)
                 (A) (A) (A) (A) (A) (A) (A) (A) (A) (A) (A) (A)
                 (A) (A) (A) (A) (A) (A) (A) (A) (A) (A) (A) (A)
                 (A) (A) (A) (A) (A) (A) (A) (A) (A) (A) (A) (A)
                 (A) (A) (A) (A) (A) (A) (A) (A) (A) (A) (A) (A)
                 (A) (A) (A) (A) (A) (A) (A) (A) (A) (A) (A) (A)
                 (A) (A) (A) (A) (A) (A) (A) (A) (A) (A) (A) (A)
                 (A) (A) (A) (A)
       Virtual   (A) (A) (A) (A) (A) (A) (A) (A) (A) (A) (A) (A)
                 (A) (A) (A) (A) (A) (A) (A) (A) (A) (A) (A) (A)
                 (A) (A) (A) (A) (A) (A) (A) (A) (A) (A) (A) (A)
                 (A) (A) (A) (A) (A) (A) (A) (A) (A) (A) (A) (A)
                 (A) (A) (A) (A) (A) (A) (A) (A) (A) (A) (A) (A)
                 (A) (A) (A) (A) (A) (A) (A) (A) (A) (A) (A) (A)
                 (A) (A) (A) (A) (A) (A) (A) (A) (A) (A) (A) (A)
                 (A) (A) (A) (A) (A) (A) (A) (A) (A) (A) (A) (A)
                 (A) (A) (A) (A) (A) (A) (A) (A) (A) (A) (A) (A)
                 (A) (A) (A) (A) (A) (A) (A) (A) (A) (A) (A) (A)
                 (A) (A) (A) (A) (A) (A) (A) (A) (A) (A) (A) (A)
                 (A) (A) (A) (A) (A) (A) (A) (A) (A) (A) (A) (A)
                 (A) (A) (A) (A) (A) (A) (A) (A) (A) (A) (A) (A)
                 (A) (A) (A) (A) (A) (A) (A) (A) (A) (A) (A) (A)
                 (A) (A) (A) (A) (A) (A) (A) (A) (A) (A) (A) (A)
                 (A) (A) (A) (A) (A) (A) (A) (A) (A) (A) (A) (A)
                 (A) (A) (A) (A) (A) (A) (A) (A) (A) (A) (A) (A)
                 (A) (A) (A) (A) (A) (A) (A) (A) (A) (A) (A) (A)
                 (A) (A) (A) (A) (A) (A) (A) (A) (A) (A) (A) (A)
                 (A) (A) (A) (A) (A) (A) (A) (A) (A) (A) (A) (A)
                 (A) (A) (A) (A) (A) (A) (A) (A) (A) (A) (A) (A)
                 (A) (A) (A) (A) (A) (A) (A) (A) (A) (A) (A) (A)
                 (A) (A) (A) (A) (A) (A) (A) (A) (A) (A) (A) (A)
                 (A) (A) (A) (A) (A) (A) (A) (A) (A) (A) (A) (A)
                 (A) (A) (A) (A) (A) (A) (A) (A) (A) (A) (A) (A)
                 (A) (A) (A) (A) (A) (A) (A) (A) (A) (A) (A) (A)
                 (A) (A) (A) (A) (A) (A) (A) (A) (A) (A) (A) (A)
                 (A) (A) (A) (A) (A) (A) (A) (A) (A) (A) (A) (A)
                 (A) (A) (A) (A) (A) (A) (A) (A) (A) (A) (A) (A)
                 (A) (A) (A) (A) (A) (A) (A) (A) (A) (A) (A) (A)
                 (A) (A) (A) (A) (A) (A) (A) (A) (A) (A) (A) (A)
                 (A) (A) (A) (A) (A) (A) (A) (A) (A) (A) (A) (A)
                 (A) (A) (A) (A) (A) (A) (A) (A) (A) (A) (A) (A)
                 (A) (A) (A) (A) (A) (A) (A) (A) (A) (A) (A) (A)
                 (A) (A) (A) (A) (A) (A) (A) (A) (A) (A) (A) (A)
                 (A) (A) (A) (A) (A) (A) (A) (A) (A) (A) (A) (A)
                 (A) (A) (A) (A) (A) (A) (A) (A) (A) (A) (A) (A)
                 (A) (A) (A) (A) (A) (A) (A) (A) (A) (A) (A) (A)
                 (A) (A) (A) (A) (A) (A) (A) (A) (A) (A) (A) (A)
                 (A) (A) (A) (A) (A) (A) (A) (A) (A) (A) (A) (A)
                 (A) (A) (A) (A) (A) (A) (A) (A) (A) (A) (A) (A)
                 (A) (A) (A) (A) (A) (A) (A) (A) (A) (A) (A) (A)
                 (A) (A) (A) (A) (A) (A) (A) (A) (A) (A) (A) (A)
                 (A) (A) (A) (A) (A) (A) (A) (A) (A) (A) (A) (A)
                 (A) (A) (A) (A) (A) (A) (A) (A) (A) (A) (A) (A)
                 (A) (A) (A) (A)
 The electronic state is 1-A.
 Alpha  occ. eigenvalues --  -19.19531 -19.18867 -19.18609 -19.17311 -10.25954
 Alpha  occ. eigenvalues --  -10.25512 -10.25509 -10.25091 -10.20158 -10.19964
 Alpha  occ. eigenvalues --  -10.19929 -10.19715 -10.19672 -10.19662 -10.19568
 Alpha  occ. eigenvalues --  -10.19534 -10.19459 -10.19439 -10.19431 -10.19298
 Alpha  occ. eigenvalues --  -10.19262 -10.19212 -10.19123 -10.19095 -10.18909
 Alpha  occ. eigenvalues --  -10.18824 -10.18803 -10.18659  -1.08890  -1.07537
 Alpha  occ. eigenvalues --   -1.06585  -1.05381  -0.86309  -0.85993  -0.85859
 Alpha  occ. eigenvalues --   -0.85626  -0.76120  -0.75810  -0.75598  -0.75481
 Alpha  occ. eigenvalues --   -0.75395  -0.74941  -0.74655  -0.74267  -0.63873
 Alpha  occ. eigenvalues --   -0.63446  -0.63240  -0.63131  -0.61694  -0.61414
 Alpha  occ. eigenvalues --   -0.61115  -0.60648  -0.56013  -0.55528  -0.55414
 Alpha  occ. eigenvalues --   -0.55321  -0.51509  -0.50992  -0.50685  -0.50531
 Alpha  occ. eigenvalues --   -0.47877  -0.47569  -0.47483  -0.47197  -0.45067
 Alpha  occ. eigenvalues --   -0.44973  -0.44783  -0.44631  -0.44154  -0.43894
 Alpha  occ. eigenvalues --   -0.43776  -0.43416  -0.42854  -0.42678  -0.42354
 Alpha  occ. eigenvalues --   -0.41845  -0.40391  -0.39624  -0.39250  -0.38572
 Alpha  occ. eigenvalues --   -0.37375  -0.37148  -0.36899  -0.36632  -0.35727
 Alpha  occ. eigenvalues --   -0.35464  -0.35359  -0.34947  -0.34585  -0.34326
 Alpha  occ. eigenvalues --   -0.33810  -0.33590  -0.26751  -0.26424  -0.26242
 Alpha  occ. eigenvalues --   -0.25826  -0.24395  -0.23957  -0.23887  -0.23490
 Alpha virt. eigenvalues --   -0.03517  -0.02898  -0.02282  -0.01759  -0.01600
 Alpha virt. eigenvalues --   -0.01257  -0.00939  -0.00625   0.01588   0.01673
 Alpha virt. eigenvalues --    0.02437   0.02461   0.03351   0.03488   0.03591
 Alpha virt. eigenvalues --    0.03701   0.04304   0.04624   0.04998   0.05154
 Alpha virt. eigenvalues --    0.05541   0.05860   0.06017   0.06470   0.06843
 Alpha virt. eigenvalues --    0.07868   0.08040   0.08094   0.08477   0.08805
 Alpha virt. eigenvalues --    0.09047   0.09262   0.10184   0.10292   0.10526
 Alpha virt. eigenvalues --    0.10711   0.10851   0.10994   0.11600   0.11945
 Alpha virt. eigenvalues --    0.12066   0.12532   0.12680   0.12848   0.13210
 Alpha virt. eigenvalues --    0.13357   0.13591   0.13741   0.13964   0.14179
 Alpha virt. eigenvalues --    0.14697   0.14795   0.15027   0.15151   0.15520
 Alpha virt. eigenvalues --    0.15969   0.16106   0.16592   0.17045   0.17062
 Alpha virt. eigenvalues --    0.17216   0.17431   0.17711   0.17922   0.18056
 Alpha virt. eigenvalues --    0.18567   0.18749   0.18757   0.19285   0.19696
 Alpha virt. eigenvalues --    0.19918   0.20191   0.20961   0.21119   0.21173
 Alpha virt. eigenvalues --    0.21849   0.22042   0.22435   0.22466   0.22772
 Alpha virt. eigenvalues --    0.22920   0.23610   0.23911   0.24051   0.24475
 Alpha virt. eigenvalues --    0.24723   0.25141   0.25423   0.25652   0.25819
 Alpha virt. eigenvalues --    0.26176   0.26196   0.26539   0.26853   0.27240
 Alpha virt. eigenvalues --    0.27377   0.27449   0.27541   0.27799   0.28082
 Alpha virt. eigenvalues --    0.28534   0.28713   0.29127   0.29419   0.29678
 Alpha virt. eigenvalues --    0.30058   0.30180   0.30364   0.30575   0.30705
 Alpha virt. eigenvalues --    0.31055   0.31324   0.31875   0.32089   0.32401
 Alpha virt. eigenvalues --    0.32484   0.32767   0.33358   0.34028   0.34242
 Alpha virt. eigenvalues --    0.34407   0.35217   0.36005   0.36208   0.36454
 Alpha virt. eigenvalues --    0.36885   0.37213   0.37597   0.37819   0.37964
 Alpha virt. eigenvalues --    0.38005   0.38688   0.39243   0.39516   0.39782
 Alpha virt. eigenvalues --    0.40138   0.40357   0.42305   0.42714   0.43206
 Alpha virt. eigenvalues --    0.43929   0.46700   0.47780   0.48669   0.49921
 Alpha virt. eigenvalues --    0.53275   0.53742   0.53833   0.54572   0.55278
 Alpha virt. eigenvalues --    0.55586   0.56249   0.57280   0.57775   0.57981
 Alpha virt. eigenvalues --    0.58513   0.59180   0.59956   0.60648   0.61796
 Alpha virt. eigenvalues --    0.62690   0.63085   0.63316   0.64950   0.66422
 Alpha virt. eigenvalues --    0.66736   0.66940   0.68441   0.68858   0.69237
 Alpha virt. eigenvalues --    0.69442   0.69783   0.69952   0.71050   0.71214
 Alpha virt. eigenvalues --    0.71846   0.72198   0.72784   0.73368   0.73392
 Alpha virt. eigenvalues --    0.73936   0.74490   0.74917   0.75075   0.75254
 Alpha virt. eigenvalues --    0.75768   0.76058   0.76274   0.76489   0.76752
 Alpha virt. eigenvalues --    0.77148   0.77379   0.77755   0.78339   0.78412
 Alpha virt. eigenvalues --    0.78675   0.78987   0.79313   0.79868   0.80136
 Alpha virt. eigenvalues --    0.80705   0.81214   0.82056   0.82488   0.83127
 Alpha virt. eigenvalues --    0.83732   0.83834   0.84414   0.84769   0.84998
 Alpha virt. eigenvalues --    0.85597   0.85850   0.86329   0.86724   0.87244
 Alpha virt. eigenvalues --    0.87440   0.87915   0.88582   0.89094   0.90410
 Alpha virt. eigenvalues --    0.90825   0.91140   0.91935   0.92452   0.92803
 Alpha virt. eigenvalues --    0.93230   0.93386   0.93913   0.94166   0.94350
 Alpha virt. eigenvalues --    0.94710   0.94992   0.95268   0.95787   0.95867
 Alpha virt. eigenvalues --    0.96637   0.96910   0.97163   0.97348   0.97866
 Alpha virt. eigenvalues --    0.98707   0.98864   0.99347   0.99986   1.00369
 Alpha virt. eigenvalues --    1.00554   1.00867   1.01431   1.01832   1.02811
 Alpha virt. eigenvalues --    1.03522   1.03905   1.05232   1.05630   1.06147
 Alpha virt. eigenvalues --    1.07186   1.07613   1.08290   1.10597   1.11215
 Alpha virt. eigenvalues --    1.11618   1.12781   1.14533   1.14887   1.15098
 Alpha virt. eigenvalues --    1.16028   1.16755   1.16925   1.17535   1.18011
 Alpha virt. eigenvalues --    1.18290   1.19198   1.19645   1.21029   1.22065
 Alpha virt. eigenvalues --    1.22488   1.22913   1.23266   1.23926   1.24956
 Alpha virt. eigenvalues --    1.25384   1.26313   1.26507   1.27116   1.27208
 Alpha virt. eigenvalues --    1.27882   1.28250   1.28820   1.28885   1.29756
 Alpha virt. eigenvalues --    1.30307   1.30834   1.32291   1.33301   1.34213
 Alpha virt. eigenvalues --    1.34584   1.35192   1.39296   1.39668   1.39865
 Alpha virt. eigenvalues --    1.41501   1.42045   1.42383   1.43032   1.43787
 Alpha virt. eigenvalues --    1.44176   1.44614   1.46321   1.48754   1.49153
 Alpha virt. eigenvalues --    1.50148   1.52363   1.55370   1.58926   1.60517
 Alpha virt. eigenvalues --    1.60943   1.61342   1.62252   1.63594   1.64366
 Alpha virt. eigenvalues --    1.65046   1.67905   1.68303   1.69445   1.69717
 Alpha virt. eigenvalues --    1.70392   1.70726   1.71413   1.71639   1.72441
 Alpha virt. eigenvalues --    1.73131   1.73887   1.74287   1.75053   1.75165
 Alpha virt. eigenvalues --    1.75504   1.75983   1.76402   1.76543   1.76931
 Alpha virt. eigenvalues --    1.77251   1.77649   1.78301   1.78449   1.78708
 Alpha virt. eigenvalues --    1.78979   1.79804   1.80237   1.80741   1.82165
 Alpha virt. eigenvalues --    1.82981   1.83064   1.83671   1.83846   1.84206
 Alpha virt. eigenvalues --    1.84362   1.84846   1.85772   1.86229   1.86410
 Alpha virt. eigenvalues --    1.87126   1.87270   1.87713   1.87928   1.88644
 Alpha virt. eigenvalues --    1.89086   1.90137   1.90326   1.90611   1.91656
 Alpha virt. eigenvalues --    1.91856   1.93121   1.93478   1.93758   1.93941
 Alpha virt. eigenvalues --    1.94213   1.94977   1.95764   1.96775   1.97041
 Alpha virt. eigenvalues --    1.97573   1.98122   1.98666   1.99593   2.01317
 Alpha virt. eigenvalues --    2.01606   2.02132   2.03146   2.07184   2.08495
 Alpha virt. eigenvalues --    2.08835   2.09855   2.10434   2.10875   2.11522
 Alpha virt. eigenvalues --    2.12050   2.12484   2.14785   2.15368   2.16589
 Alpha virt. eigenvalues --    2.17081   2.19529   2.19677   2.21445   2.21880
 Alpha virt. eigenvalues --    2.23213   2.24880   2.27222   2.27493   2.27974
 Alpha virt. eigenvalues --    2.28043   2.28648   2.28957   2.29214   2.29454
 Alpha virt. eigenvalues --    2.29633   2.29838   2.31379   2.31857   2.32452
 Alpha virt. eigenvalues --    2.32883   2.33679   2.33874   2.35020   2.35075
 Alpha virt. eigenvalues --    2.35275   2.35537   2.36592   2.36858   2.37144
 Alpha virt. eigenvalues --    2.37458   2.38136   2.38776   2.38911   2.40088
 Alpha virt. eigenvalues --    2.42807   2.44730   2.44900   2.45903   2.46263
 Alpha virt. eigenvalues --    2.48407   2.48893   2.49826   2.50995   2.53382
 Alpha virt. eigenvalues --    2.53477   2.54005   2.59487   2.61475   2.65132
 Alpha virt. eigenvalues --    2.66404   2.66844   2.69138   2.69259   2.69692
 Alpha virt. eigenvalues --    2.70270   2.71077   2.71521   2.71951   2.72565
 Alpha virt. eigenvalues --    2.73363   2.73936   2.74285   2.74633   2.76201
 Alpha virt. eigenvalues --    2.76616   2.76827   2.77755   2.77974   2.78325
 Alpha virt. eigenvalues --    2.79045   2.79232   2.89679   2.90736   2.90901
 Alpha virt. eigenvalues --    2.91771   2.91956   2.95364   2.96004   2.96618
 Alpha virt. eigenvalues --    2.97128   2.98204   2.99068   3.00994   3.01964
 Alpha virt. eigenvalues --    3.02253   3.03657   3.04428   3.05086   3.05230
 Alpha virt. eigenvalues --    3.06045   3.06238   3.07449   3.07634   3.08259
 Alpha virt. eigenvalues --    3.13206   3.15137   3.16681   3.16983   3.17901
 Alpha virt. eigenvalues --    3.31043   3.33101   3.33806   3.36536   3.44697
 Alpha virt. eigenvalues --    3.46167   3.48106   3.49280   3.61830   3.63082
 Alpha virt. eigenvalues --    3.65016   3.67500   3.85037   3.90038   3.92777
[...]
 00001759,0.00000613,-0.00000155,-0.00001468,0.00000732,-0.00000211,0.0
 0000691,0.00000674,-0.00001020,-0.00000714,-0.00000213,-0.00004918,0.0
 0002500,0.00009527,0.00004352,-0.00004499,-0.00003001,0.00001127,0.000
 00945,-0.00006419,-0.00002213,0.00001331,-0.00001897,-0.00002319,-0.00
 000907,0.00002189,0.00003973,-0.00001582,-0.00000232,-0.00001773,0.000
 05793,0.00000717,0.00000713,0.00001074,-0.00000382,-0.00000525,0.00000
 473,0.00000253,-0.00000562,0.00000130,0.00000216,-0.00001726,0.0000076
 7,-0.00000017,-0.00006790,0.00010703,-0.00033584,0.00025684,0.00001222
 ,0.00035942,-0.00013798,-0.00005985,-0.00000338,-0.00010301,-0.0009028
 4,-0.00009955,0.00033965,0.00168143,0.00084587,0.00004292,0.00001229,-
 0.00023071,-0.00001806,-0.00004160,0.00003818,-0.00000036,0.00013885,-
 0.00026840,0.00019246,-0.00059919,-0.00043810,0.00405784,-0.00000295,-
 0.00045743,-0.00027868,-0.00007636,0.00023656,0.00001052,0.00000065,0.
 00001321,0.00002811,-0.00000102,0.00000632,0.00003328,-0.00004126,-0.0
 0003417,0.00006069,0.00014788,0.00009366,-0.03082288,0.01293881,-0.001
 45652,-0.00202247,-0.00273620,-0.00324843,-0.00068987,-0.00022697,0.00
 160537,0.00050392,-0.00017940,-0.00027070,-0.00038882,-0.00001764,-0.0
 0027568,-0.00121420,0.00128311,0.00105794,-0.00005311,0.00035364,-0.00
 012855,-0.00009576,-0.00004458,-0.00023590,0.00015786,0.00003469,-0.00
 001703,0.00008737,0.00005659,0.00017257,0.00112776,-0.00104609,-0.0012
 9749,0.02992581,-0.03417295,-0.03789584,0.00198117,0.02440154,0.048231
 65,0.00000014,-0.00000587,0.00000724,-0.00000352,-0.00001552,-0.000000
 21,-0.00000483,0.00001641,-0.00002855,0.00003558,-0.00000440,0.0000052
 5,-0.00003032,0.00006842,-0.00003324,0.00000005,-0.00000435,0.00000827
 ,0.00000065,-0.00000623,0.00000038,0.00000025,-0.00000379,0.00000244,-
 0.00000444,0.00000303,0.00000162,-0.00000110,-0.00000096,-0.00000417,0
 .00112064,0.00020528,-0.00066925,-0.00020230,-0.00021605,0.00002133,0.
 00022671,0.00006033,-0.00029191,-0.00025006,0.00010141,0.00004048,-0.0
 0027511,-0.00019300,0.00042209,-0.00000550,-0.00002226,-0.00021133,-0.
 00003837,0.00008343,0.00001424,-0.00001201,0.00001458,0.00000703,-0.00
 001110,0.00000952,-0.00001991,-0.00002761,-0.00002146,-0.00000401,-0.0
 0004504,-0.00010171,-0.00015174,-0.00065659,-0.00046953,0.00043229,-0.
 00000841,0.00011882,0.00013702,-0.00002702,-0.00000950,0.00000952,0.00
 005370,-0.00008596,-0.00002553,-0.00004311,0.00002908,0.00005398,-0.00
 107267,0.00056307,0.00027977,0.00385116,0.00109191,0.00470411,0.005947
 86,0.01233692,-0.00213909,-0.05722509,-0.06392081,0.01830689,0.0004693
 5,-0.01832693,0.00068349,0.00149800,-0.00115448,0.00533914,-0.00049137
 ,0.00006938,-0.00045962,0.00040897,0.00061714,0.00013789,-0.00241630,0
 .00038961,-0.00235229,-0.00010278,-0.00090735,0.00001607,-0.00003526,-
 0.00000714,0.00001630,-0.00000137,-0.00000520,-0.00000607,0.00001078,0
 .00000605,0.00001041,0.00001929,-0.00000301,-0.00000097,0.00000126,-0.
 00001245,-0.00004635,-0.00003233,0.00011111,-0.00000821,0.00000348,-0.
 00000546,-0.00000129,0.00000656,-0.00000200,0.00000044,0.00000722,-0.0
 0000282,0.00000515,-0.00000603,-0.00000774,0.00000107,0.00005880,-0.00
 010826,0.00003593,0.00001431,0.00003561,-0.00006007,-0.00002189,-0.000
 04034,0.00011173,0.05082078,-0.00000464,-0.00001125,0.00001311,-0.0000
 0188,-0.00000953,0.00000061,-0.00000406,0.00000887,-0.00000918,0.00001
 178,0.00000649,0.00000783,-0.00001744,0.00002840,-0.00000938,-0.000015
 35,0.00000162,0.00000614,0.00000316,-0.00000278,-0.00000132,0.00000066
 ,-0.00000095,-0.00000156,-0.00000218,0.00000104,-0.00000170,0.00000478
 ,-0.00000357,-0.00000994,0.00090144,-0.00180805,-0.00164106,0.00001669
 ,-0.00001381,0.00018022,0.00014475,0.00003765,0.00000797,-0.00012473,0
 .00014939,-0.00016595,-0.00017535,-0.00036390,0.00018376,-0.00080523,-
 0.00104930,-0.00067283,-0.00003280,0.00005110,-0.00000329,-0.00000554,
 0.00002561,-0.00002110,0.00001815,0.00003418,-0.00001186,0.00008057,0.
 00005145,0.00000213,0.00010771,-0.00000136,0.00020016,-0.00057719,-0.0
 0086397,0.00028983,0.00008454,0.00001340,0.00006060,-0.00000952,-0.000
 00228,0.00000185,-0.00003546,-0.00004482,0.00000359,-0.00001127,0.0000
 6330,0.00001481,0.00026645,0.00060882,0.00003250,0.00129882,0.00015133
 ,-0.00345161,-0.00514442,-0.01412264,0.00321673,-0.06395745,-0.3244311
 6,0.02333716,-0.00018096,-0.00623869,-0.00207517,-0.00132097,0.0013579
 4,0.00071875,0.00007146,-0.00007406,0.00009434,-0.00032530,-0.00069068
 ,0.00019304,0.00062508,0.00070929,0.00031060,0.00000784,-0.00019946,-0
 .00010392,-0.00004294,-0.00003235,-0.00004627,0.00000949,0.00000134,0.
 00001393,0.00000391,-0.00000243,0.00000195,0.00001119,0.00000324,0.000
 00392,-0.00001011,-0.00000531,-0.00002259,-0.00001863,0.00003768,0.000
 00333,0.00000070,-0.00000169,-0.00000168,0.00000413,0.00000055,0.00000
 064,0.00000314,-0.00000078,0.00000175,-0.00000118,-0.00000377,0.000002
 46,0.00002529,-0.00003827,0.00001451,0.00014237,-0.00002053,0.00001204
 ,-0.00019214,0.00001131,0.00002239,0.06883403,0.34455830,0.00000543,-0
 .00001076,0.00001237,-0.00000621,0.00000065,-0.00001291,0.00000196,0.0
 0000212,-0.00001124,0.00000212,0.00000605,-0.00002110,0.00003943,-0.00
 007389,0.00008383,-0.00000789,0.00002463,-0.00000246,0.00000051,-0.000
 00057,-0.00000002,-0.00000249,0.00000067,-0.00000004,-0.00000799,0.000
 00254,-0.00000204,0.00000089,-0.00000726,-0.00000579,-0.00013133,-0.00
 099066,0.00021794,-0.00010517,-0.00020650,0.00016579,0.00025685,0.0001
 2294,-0.00027825,-0.00018994,0.00016852,-0.00034459,-0.00014058,-0.000
 16663,0.00044855,0.00011192,-0.00003390,-0.00015498,-0.00001304,0.0000
 2376,-0.00000877,0.00000131,0.00002772,-0.00000849,0.00000287,0.000027
 57,-0.00002239,0.00002556,0.00000894,0.00000223,-0.00015041,-0.0001454
 9,-0.00022768,0.00000185,0.00003513,-0.00024365,0.00025107,-0.00000078
 ,-0.00000083,-0.00000984,-0.00000185,0.00000965,-0.00014230,0.00005969
 ,-0.00005373,0.00001972,0.00002468,0.00001126,0.00007772,-0.00034243,-
 0.00112766,0.00481768,-0.00286383,-0.00016904,-0.00576565,-0.02085503,
 0.00565707,0.01738753,0.02235947,-0.05281801,0.00545365,0.02308583,0.0
 0199754,0.00528094,0.00036213,-0.00151068,-0.00046902,0.00009947,-0.00
 019264,-0.00009860,-0.00105584,0.00023288,-0.00229479,0.00058808,-0.00
 091058,0.00023648,0.00115931,0.00003916,0.00007917,0.00008256,0.000139
 09,-0.00003245,-0.00001186,-0.00002878,0.00000766,0.00000686,0.0000152
 1,0.00000400,-0.00000561,-0.00001289,0.00000695,-0.00000970,-0.0000231
 0,-0.00002000,0.00001481,-0.00002185,0.00000730,-0.00000179,-0.0000018
 0,0.00000132,-0.00000174,-0.00000148,0.00000318,-0.00000202,0.00000137
 ,-0.00000497,-0.00000942,-0.00000261,0.00001017,-0.00002250,-0.0000007
 2,-0.00026004,-0.00002449,-0.00010391,0.00026926,0.00000050,0.00007636
 ,-0.02193513,-0.02176525,0.04959060,0.00005057,0.00006721,0.00000183,-
 0.00001476,0.00013040,-0.00006932,0.00009588,-0.00003920,0.00012816,-0
 .00021301,-0.00014770,-0.00030072,0.00064090,-0.00089133,0.00102131,-0
 .00005669,0.00022000,-0.00022086,-0.00001314,0.00005602,-0.00000872,-0
 .00001725,0.00004278,-0.00001249,-0.00002417,-0.00001577,-0.00000874,-
 0.00001573,0.00000529,0.00004509,0.00055020,0.00052572,-0.00054251,-0.
 00026214,-0.00004054,0.00013560,0.00008800,0.00000552,0.00005580,-0.00
 001848,0.00000933,-0.00000408,0.00016156,-0.00009140,-0.00006493,-0.00
 010087,-0.00001488,-0.00023337,-0.00000754,-0.00005252,0.00002733,-0.0
 0001203,-0.00002341,0.00003367,0.00000634,0.00000060,0.00002064,0.0000
 2106,0.00004075,0.00001565,0.00014923,0.00007550,0.00010765,0.00456808
 ,-0.00426835,-0.00027461,-0.00219618,-0.00191733,0.00010721,0.00005218
 ,-0.00003434,0.00014312,0.00065315,0.00246415,-0.00067580,-0.00032896,
 -0.00375847,-0.00004346,0.00192736,-0.00365884,0.00415476,-0.00078322,
 0.00376402,0.00038907,0.00387258,-0.00698764,0.00321647,-0.00973459,0.
 02391678,0.02845810,-0.10208345,0.01460378,0.07267036,0.01047135,0.000
 04639,-0.00436449,0.00024553,-0.00016818,-0.00031937,-0.00053200,0.000
 36953,-0.00044315,-0.00054388,0.00092177,0.00097410,-0.00159459,0.0007
 1663,-0.00237106,0.00462129,0.00629914,0.00986438,-0.00205921,-0.00101
 739,-0.00233466,-0.00018519,0.00036591,0.00058120,-0.00034278,-0.00033
 764,-0.00066808,0.00011620,0.00011454,0.00033943,0.00084884,-0.0016188
 2,-0.00167907,0.00027777,-0.00000503,0.00003306,-0.00024161,-0.0000629
 4,-0.00016914,-0.00009485,-0.00003592,-0.00009614,-0.00008602,-0.00013
 395,-0.00025026,-0.00087818,0.00048534,0.00003666,-0.02971869,0.004433
 96,-0.00557515,0.01479573,-0.00225587,-0.00346723,-0.00120345,0.000976
 13,-0.00347483,0.20921817,-0.00007021,0.00010980,-0.00013474,0.0000853
 7,-0.00011008,0.00015314,-0.00005276,0.00008057,-0.00005644,0.00026622
 ,-0.00015311,0.00036231,-0.00089284,0.00171713,-0.00170767,0.00012360,
 -0.00042059,0.00016158,-0.00000967,-0.00004507,0.00001664,0.00002040,-
 0.00003447,0.00003361,0.00004654,-0.00000895,0.00005838,-0.00002497,0.
 00010830,0.00004391,0.00967243,0.00289248,-0.01044229,-0.00105567,-0.0
 0131404,0.00256614,0.00069436,0.00038324,-0.00015080,-0.00076377,-0.00
 025897,0.00070045,0.00018068,0.00036059,-0.00002369,-0.00183340,0.0003
 4779,0.00103385,-0.00016050,0.00000006,-0.00024723,-0.00006422,-0.0001
 4054,0.00019257,-0.00009771,-0.00012360,0.00003806,-0.00023680,-0.0000
 8640,0.00005317,0.00018796,-0.00018373,-0.00026826,-0.00964081,-0.0296
 7778,0.00613552,-0.00377795,0.00103491,0.00086216,-0.00008454,-0.00004
 485,-0.00006093,0.00246014,-0.00182837,0.00094918,-0.00105774,0.000652
 71,0.00008872,-0.00715971,-0.00158741,0.00828299,0.00414076,0.00065997
 ,-0.00538518,-0.00220398,-0.00389444,0.00038917,0.00161595,0.00770295,
 -0.00157087,0.04330112,-0.16654534,-0.09183795,0.02330657,-0.04724180,
 -0.04400926,0.00076654,-0.00165556,-0.00143718,0.00042662,0.00007442,-
 0.00020779,0.00013892,0.00011305,-0.00011176,0.00067533,0.00244921,0.0
 0031385,-0.00162316,-0.00264886,-0.00428475,0.00090513,0.00044816,0.00
 107671,-0.00000260,-0.00022190,-0.00029327,0.00012435,0.00019176,0.000
 33651,-0.00000841,0.00000963,-0.00010323,0.00019945,0.00083887,0.00080
 043,-0.00015070,0.00000319,0.00000159,0.00007702,0.00003240,0.00007663
 ,0.00002230,0.00000534,0.00003947,0.00008912,0.00005465,0.00018922,0.0
 0057829,-0.00068682,-0.00003790,0.00979341,0.00460758,0.00332245,-0.00
 892803,-0.00964095,-0.00127377,0.00061323,0.00172296,0.00077491,0.0985
 7562,0.58898127,-0.00003703,0.00004301,-0.00006019,0.00003568,-0.00003
 969,0.00008167,-0.00001794,0.00002459,0.00001040,0.00007528,-0.0000694
 9,0.00019367,-0.00035794,0.00071344,-0.00078392,0.00001591,-0.00020277
 ,0.00009786,0.00000308,-0.00001735,0.00000233,0.00001526,-0.00001440,0
 .00000797,0.00003296,-0.00000883,0.00002088,0.00001043,0.00004526,-0.0
 0000133,0.00226867,-0.00009160,-0.00211492,-0.00034844,-0.00034839,0.0
 0083976,0.00023755,0.00005782,0.00005343,-0.00023643,-0.00004241,0.000
 21603,0.00006241,0.00003379,0.00013386,-0.00061994,0.00037702,0.000051
 08,-0.00000887,-0.00006719,-0.00008229,-0.00002544,-0.00006886,0.00004
 516,-0.00002417,-0.00005894,0.00000968,-0.00007566,-0.00004739,-0.0000
 1342,0.00016659,-0.00006364,-0.00012692,-0.00268239,-0.00371661,0.0052
 0248,-0.00035719,0.00062863,-0.00011875,0.00002761,-0.00000283,-0.0000
 5168,0.00064831,-0.00090496,0.00074170,-0.00031648,0.00045294,-0.00032
 991,0.00355225,0.00157100,0.00006310,-0.00068222,-0.00475828,-0.001293
 41,0.00470373,0.00764035,0.00330433,0.02370916,-0.03112322,-0.02944582
 ,0.08397870,-0.06687365,-0.15977550,0.00093712,-0.01009356,0.00226247,
 0.00001479,-0.00018151,0.00003642,-0.00045608,-0.00021820,-0.00033163,
 0.00058279,-0.00112206,-0.00127112,-0.00223188,0.00055951,-0.00034929,
 -0.00066735,-0.00136472,-0.00201368,0.00048298,0.00025166,0.00051437,-
 0.00001255,-0.00006314,-0.00017064,0.00005798,0.00011534,0.00018488,0.
 00006016,-0.00001392,0.00001247,0.00059304,0.00028822,0.00051262,-0.00
 008737,0.00000737,0.00000046,0.00002969,0.00001117,0.00004251,0.000011
 11,0.00000702,0.00001673,0.00006721,0.00004799,0.00011394,0.00007496,-
 0.00039516,-0.00024064,0.00405453,0.00050899,0.00519440,-0.00687908,-0
 .00038957,-0.00652362,-0.00353810,0.00014397,0.00084544,-0.13619328,0.
 09032623,0.22254582,-0.00003329,-0.00004066,0.00001336,0.00000440,-0.0
 0005152,0.00002300,-0.00002181,0.00003004,-0.00005100,0.00010092,0.000
 01077,0.00010063,-0.00018723,0.00037772,-0.00043760,0.00002246,-0.0000
 8094,0.00012317,0.00001046,-0.00002327,0.00000389,0.00000435,-0.000012
 19,0.00000114,0.00000212,0.00000239,0.00000468,0.00001540,-0.00002125,
 -0.00003874,-0.00211472,-0.00331594,0.00162276,0.00032425,0.00021036,-
 0.00046911,-0.00010919,0.00002144,-0.00009965,0.00006923,0.00006055,-0
 .00021394,-0.00022465,0.00013883,0.00016703,0.00067611,-0.00023094,0.0
 0029466,0.00000307,0.00005533,0.00000129,0.00001729,0.00006076,-0.0000
 5434,0.00000659,0.00003418,-0.00005020,0.00005132,0.00000063,-0.000010
 59,-0.00044475,-0.00012803,-0.00016624,-0.00941384,0.00206228,0.000441
 58,0.00315677,0.00556617,-0.00038096,-0.00004259,-0.00001143,-0.000019
 77,-0.00033137,-0.00105572,0.00032892,-0.00087328,0.00085745,0.0000263
 8,0.00129658,0.00077444,0.00012394,0.00001321,-0.00003077,0.00013432,-
 0.00067416,-0.00029994,0.00008557,0.00005531,0.00231672,0.00006723,0.0
 0775222,0.02000308,-0.00493892,-0.00095308,0.00257486,0.00421062,-0.00
 022616,0.00027645,0.00015455,-0.00009099,-0.00005403,-0.00000370,-0.00
 005008,0.00004255,0.00006224,-0.00026334,0.00003638,-0.00027729,-0.000
 66396,-0.00054667,-0.00112043,0.00020928,0.00005739,0.00023947,0.00001
 887,-0.00006434,-0.00003670,0.00007516,0.00002582,0.00008289,-0.000049
 16,-0.00002179,-0.00007054,0.00004768,0.00018808,0.00021166,-0.0000152
 2,0.00000272,-0.00001706,0.00003615,0.00001090,0.00001385,0.00002063,0
 .00000948,0.00001365,0.00000087,0.00001817,0.00002481,0.00002136,-0.00
 011290,-0.00002918,0.00076862,0.00187643,0.00058015,-0.00269754,-0.005
 48519,0.00060519,-0.00030057,-0.00063756,0.00089822,-0.10006931,-0.159
 18731,0.02934593,0.10506958,0.00003579,-0.00018541,0.00017332,-0.00009
 743,0.00004005,-0.00013256,-0.00000365,-0.00006265,-0.00003343,-0.0001
 5976,0.00028896,-0.00023805,0.00058407,-0.00144195,0.00138124,-0.00012
 472,0.00036171,-0.00003287,0.00002547,0.00001539,-0.00001914,-0.000009
 42,0.00000941,-0.00003382,-0.00003498,0.00002136,-0.00006296,0.0000531
 2,-0.00013385,-0.00010038,-0.01440333,-0.00574447,0.01501158,0.0017041
 0,0.00200354,-0.00352996,-0.00083521,-0.00043224,0.00014237,0.00101270
 ,0.00049130,-0.00106532,-0.00023301,-0.00037487,0.00037815,0.00271797,
 0.00018119,-0.00187027,0.00019731,0.00001456,0.00024462,0.00010095,0.0
 0019349,-0.00030479,0.00011833,0.00010638,-0.00007457,0.00031879,0.000
 07848,-0.00011876,-0.00016544,0.00018583,0.00023852,0.00838568,0.01461
 615,-0.00840046,0.00694986,-0.00291843,-0.00158680,0.00002849,0.000063
 01,-0.00002427,-0.00375158,0.00064594,-0.00048982,0.00085834,0.0018759
 0,-0.00020079,-0.00025799,-0.00055760,-0.00021031,-0.00047477,0.001076
 76,0.00091192,-0.00010635,-0.00135246,0.00035889,-0.00229945,0.0046632
 9,0.00386046,0.00106650,-0.02968904,-0.00887765,0.00031739,0.00360520,
 -0.00036611,0.00006225,0.00023737,0.00002255,-0.00007261,0.00010925,0.
 00007778,-0.00027521,0.00027148,0.00046471,0.00006527,-0.00009849,0.00
 002457,-0.00061672,-0.00062284,-0.00094171,0.00018156,0.00002937,0.000
 23495,0.00011820,-0.00002528,0.00002570,0.00014228,0.00000069,0.000066
 08,0.00001669,-0.00013425,-0.00014522,-0.00037437,0.00017117,0.0003696
 6,0.00002326,0.00002042,-0.00004765,0.00006186,0.00001704,0.00001113,0
 .00005186,0.00002000,0.00001244,-0.00002667,0.00002780,-0.00001218,-0.
 00005152,0.00001226,-0.00028139,0.00388533,-0.00225022,0.00059317,-0.0
 0705020,0.00331323,0.00000051,0.00028625,0.00040214,-0.00045974,-0.131
 65531,-0.34702936,0.01850700,0.13371003,0.35788334,0.00000647,-0.00001
 328,0.00000798,-0.00000798,-0.00001886,-0.00001246,-0.00001164,0.00001
 247,-0.00005513,0.00004146,0.00003280,-0.00001958,-0.00005313,0.000006
 03,0.00001903,0.00002923,0.00001937,0.00000138,-0.00000333,-0.00000598
 ,0.00000358,-0.00000464,-0.00000508,0.00000443,-0.00000948,0.00000686,
 0.00000028,-0.00001208,-0.00000957,0.00000764,0.00068480,0.00453391,-0
 .00142497,0.00045903,0.00007063,-0.00030695,-0.00010879,-0.00001568,-0
 .00026621,-0.00000409,-0.00003880,0.00009530,0.00000043,0.00003096,-0.
 00025602,-0.00014631,-0.00029261,0.00028910,-0.00003722,0.00012497,0.0
 0006616,0.00003243,0.00002043,-0.00001911,-0.00000656,0.00002235,0.000
 01388,-0.00001945,0.00000807,0.00001794,-0.00003901,0.00010625,0.00009
 024,0.00108393,-0.00455385,-0.00621683,-0.00047088,0.00048398,0.000854
 56,-0.00005466,-0.00001539,0.00001103,0.00008368,-0.00010712,-0.000321
 12,-0.00004575,0.00019216,0.00038168,0.00019104,-0.00054620,0.00167694
 ,0.00023877,0.00043227,-0.00032559,-0.00000181,-0.00032830,-0.00030635
 ,-0.00123696,-0.00138058,0.00095680,-0.01319339,-0.02799388,0.00026974
 ,0.00282382,-0.00242857,-0.00276936,0.00003705,-0.00011478,-0.00022677
 ,-0.00002848,0.00015125,-0.00003334,-0.00004778,0.00008205,0.00013798,
 -0.00037183,-0.00004180,-0.00016219,-0.00021154,-0.00021176,-0.0002531
 4,0.00003856,0.00002614,0.00005546,0.00002858,0.00000089,0.00000493,0.
 00004784,-0.00000475,0.00001472,-0.00001131,-0.00002121,-0.00009229,-0
 .00006671,0.00012870,0.00004135,0.00000766,-0.00001116,-0.00000160,0.0
 0001642,-0.00000021,0.00000617,0.00001449,-0.00000256,0.00000890,-0.00
 000710,-0.00000321,0.00000694,0.00006345,-0.00014478,0.00000837,0.0006
 6923,0.00005214,-0.00006406,-0.00134597,0.00003117,0.00069843,0.001175
 49,0.00091906,-0.00122162,0.04130486,0.04426538,-0.03825922,-0.0315208
 3,-0.01345037,0.04686297\\0.00000471,0.00000002,0.00000427,-0.00000629
 ,-0.00000069,-0.00000137,0.00000357,0.00000472,-0.00000309,0.00000235,
 0.00000209,0.00000667,-0.00000818,-0.00000902,-0.00000174,-0.00000015,
 0.00000866,-0.00000140,0.00000173,-0.00000052,0.00000027,0.00000106,-0
 .00000023,-0.00000028,0.00000051,-0.00000087,-0.00000037,0.00000045,0.
 00000114,0.00000141,0.00001843,0.00000022,-0.00002189,-0.00000192,0.00
 000151,0.00000217,-0.00000067,0.00000107,-0.00000129,0.00000084,0.0000
 0043,0.00000188,0.00000083,-0.00000105,-0.00000363,-0.00000363,0.00000
 302,0.00000571,0.00000135,0.00000192,-0.00000275,-0.00000050,-0.000001
 25,-0.00000003,0.00000054,-0.00000110,0.00000059,-0.00000044,-0.000000
 66,0.00000079,0.00000105,-0.00000103,-0.00000268,-0.00003131,0.0000075
 2,0.00002809,0.00000889,-0.00001723,0.00000285,-0.00000068,-0.00000068
 ,-0.00000149,-0.00000273,0.00000179,-0.00000388,0.00001796,0.00001378,
 0.00000147,0.00000537,-0.00000352,-0.00000740,-0.00001136,-0.00000838,
 0.00000008,0.00000542,0.00000459,0.00000680,-0.00000009,-0.00000060,-0
 .00000612,0.00000839,-0.00000523,-0.00000289,-0.00000603,0.00000520,0.
 00000856,0.00000024,-0.00000028,0.00000152,0.00000069,0.00000036,-0.00
 000015,-0.00000028,-0.00000020,-0.00000025,-0.00000070,-0.00000244,-0.
 00000090,-0.00000551,-0.00000847,-0.00000446,-0.00000004,-0.00000397,0
 .00000448,-0.00000051,-0.00000061,-0.00000231,-0.00000167,0.00000075,0
 .00000117,0.00000246,-0.00000159,0.00000003,0.00000139,-0.00000063,-0.
 00000425,-0.00000066,0.00000094,-0.00000215,0.00000005,0.00000053,-0.0
 0000027,-0.00000134,0.00000146,0.00000078,0.00000046,0.00000116,0.0000
 0014,-0.00000473,-0.00000079,-0.00000345,0.00000220,-0.00000539,0.0000
 0515,-0.00000415,0.00001258,0.00000076,-0.00000092,-0.00000376,-0.0000
 0096,0.00000738,-0.00001339,0.00000329,-0.00000379,0.00001812,-0.00000
 746\\\@


 LAW OF COMPENSATION:
      NO CALCULATION IS EVER A COMPLETE FAILURE; IT 
      CAN ALWAYS SERVE AS A BAD EXAMPLE.

                                           -- ANON
 Job cpu time:       1 days 15 hours  0 minutes 28.2 seconds.
 Elapsed time:       0 days  4 hours 52 minutes 48.7 seconds.
 File lengths (MBytes):  RWF=   2154 Int=      0 D2E=      0 Chk=     56 Scr=      1
 Normal termination of Gaussian 16 at Thu Jun  6 22:58:35 2019.
