 Entering Gaussian System, Link 0=g16
 Input=trimero_jaula_b3lypd3_n07d_ccl4_of_pcm.com
 Output=trimero_jaula_b3lypd3_n07d_ccl4_of_pcm.log
 AtFile(1): N07D_B3LYP.gbs
             -H 0
             6-31G
             P   1 1.00       0.000000000000
                  0.7500000000D+00  0.10000000D+01
             ****
             -He 0
             6-31G**
             ****
             -Li 0
             6-31+G**
             ****
             -Be 0
             6-31+G**
             ****
             -B 0
             6-31G
             P   1 1.00       0.000000000000
                  0.3500000000D-01  0.1000000000D+01
             D   1 1.00       0.000000000000
                  0.3430000000D+00  0.1000000000D+01
             ****
             -C 0
             6-31G
             S   1 1.00       0.000000000000
                  0.7500000000D+01  0.1000000000D+01
             P   1 1.00       0.000000000000
                  0.5000000000D-01  0.1000000000D+01
             D   1 1.00       0.000000000000
                  0.8200000000D+00  0.1000000000D+01
             ****
             -N 0
             6-31G
             S   1 1.00       0.000000000000
                  0.1260000000D+02  0.1000000000D+01
             P   1 1.00       0.000000000000
                  0.5300000000D-01  0.1000000000D+01
             D   1 1.00       0.000000000000
                  0.1015000000D+01  0.1000000000D+01
             ****
             -O 0
             6-31G
             S   1 1.00
                  0.1510000000D+02  0.1000000000D+01
             P   1 1.00       0.000000000000
                  0.6500000000D-01  0.1000000000D+01
             D   1 1.00        0.000000000000
                  0.1190000000D+01  0.1000000000D+01
             D   1 1.00        0.000000000000
                  0.1800000000D+00  0.1000000000D+01
             ****
             -F 0
             6-31G
             S   1 1.00
                  0.1830000000D+02  0.1000000000D+01
             P   1 1.00       0.000000000000
                  0.8300000000D-01  0.1000000000D+01
             D   1 1.00       0.000000000000
                  1.3700000000D+00  0.1000000000D+01
             D   1 1.00       0.000000000000
                  0.2300000000D+00  0.1000000000D+01
             ****
             -Ne 0
             6-31+G**
             ****
             -Na 0
             6-31+G**
             ****
             -Mg 0
             6-31+G**
             ****
             -Al 0
             6-31G
             S   1 1.00      0.000000000000
                  0.3100000000D+01  0.1000000000D+01
             P   1 1.00      0.000000000000
                  0.1500000000D-01  0.1000000000D+01
             D   1 1.00      0.000000000000
                  0.1890000000D+00  0.1000000000D+01
             ****
             -Si 0
             6-31G
             S   1 1.0
                  0.3600000000D+01  0.1000000000D+01
             P   1 1.00       0.000000000000
                  0.3300000000D-01  0.1000000000D+01
             D   1 1.0        0.000000000000
                  0.2750000000D+00  0.1000000000D+01
             ****
             -P  0
             6-31G
             S   1 1.00       0.000000000000
                  0.5500000000D+01  0.1000000000D+01
             P   1 1.00       0.000000000000
                  0.3500000000D-01  0.1000000000D+01
             D   1 1.00       0.000000000000
                  0.3730000000D+00  0.1000000000D+01
             ****
             -S  0
             6-31G
             S   1 1.00       0.000000000000
                  0.8000000000D+01  0.1000000000D+01
             P   1 1.00        0.000000000000
                  0.4100000000D-01  0.1000000000D+01
             D   1 1.00        0.000000000000
                  0.4790000000D+00  0.1000000000D+01
             ****
            -Cl 0
             6-31G
             S   1 1.00      0.000000000000
                  0.8500000000D+01  0.1000000000D+01
             P   1 1.00      0.000000000000
                  0.4800000000D-01  0.1000000000D+01
             D   1 1.00      0.000000000000
                  0.6000000000D+00  0.1000000000D+01
             D   1 1.00       0.000000000000
                  0.1960000000D+00  0.1000000000D+01
             ****
            -Br 0
             S   3 1.00       0.000000000000
                  0.4721881000D+01  0.1749732514D+00
                  0.2257555000D+01 -0.7074172290D+00
                  0.3896080000D+00  0.1258999543D+01
             S   1 1.00       0.000000000000
                  0.1471340000D+00  0.1000000000D+01
             P   3 1.00       0.000000000000
                  0.1896942000D+01 -0.2464576731D+00
                  0.9108990000D+00  0.3623179892D+00
                  0.3168550000D+00  0.8338469725D+00
             P   1 1.00       0.000000000000
                  0.1095030000D+00  0.1000000000D+01
             P   1 1.00       0.000000000000
                  0.3609700000D-01  0.1000000000D+01
             D   1 1.00
                  0.4750000000D+00  0.1000000000D+01
             D   1 1.00
                  0.1280000000D+00  0.1000000000D+01
             ****
            -I   0
             S   3 1.00       0.000000000000
                  0.2122765000D+01  0.2063429899D+01
                  0.1770481000D+01 -0.2869526473D+01
                  0.3130840000D+00  0.1404747074D+01
             S   1 1.00       0.000000000000
                  0.1320000000D+00  0.1000000000D+01
             P   3 1.00       0.000000000000
                  0.2432887000D+01  0.7732753148D+00
                  0.2137249000D+01 -0.1020833156D+01
                  0.3145460000D+00  0.1095666871D+01
             P   1 1.00       0.000000000000
                  0.1049450000D+00  0.1000000000D+01
             P   1 1.00       0.000000000000
                  0.3264100000D-01  0.1000000000D+01
             D   1 1.00
                  0.300000000          1.00000000
             D   1 1.00
                  0.090000000          1.00000000
             ****
             -Zn 0
             SP   6 1.00       0.000000000000
                  0.6936492000D+02 -0.4440098182D-02 -0.7689261805D-02
                  0.2362082000D+02  0.7505253308D-01 -0.2997981924D-01
                  0.1018471000D+02  0.2533111104D+00  0.7082410821D-01
                  0.4334082000D+01 -0.2881897118D+00  0.4046140897D+00
                  0.1810918000D+01 -0.7267052298D+00  0.4882324876D+00
                  0.7148410000D+00 -0.2133439088D+00  0.1751969956D+00
             SP   3 1.00       0.000000000000
                  0.2823842000D+01  0.4898545031D-01 -0.1586762981D+00
                  0.1039543000D+01  0.2592794075D+00  0.8379326898D-01
                  0.1432640000D+00 -0.1115711463D+01  0.9840546881D+00
             SP   1 1.00       0.000000000000
                  0.4929600000D-01  0.1000000000D+01  0.1000000000D+01
             S    1 1.00       0.000000000000
                  0.1620000000D+00  0.1000000000D+01
             D    3 1.00       0.000000000000
                  0.3370764000D+02  0.9262647815D-01
                  0.9061106000D+01  0.4002979920D+00
                  0.2738383000D+01  0.6896607863D+00
             D    1 1.00
                  0.2440000000D+01  0.1000000000D+01
             D    1 1.00       0.000000000000
                  0.7302940000D+00  0.1000000000D+01
             D    1 1.00       0.000000000000
                  0.1620000000D+00  0.1000000000D+01
             ****
             -Br,-I,-Zn 0
             SDDALL
            ****
 Initial command:
 /home/apps/g16/g16/l1.exe "/scratch/gaussian/jpablo/Gau-29302.inp" -scrdir="/scratch/gaussian/jpablo/"
 Entering Link 1 = /home/apps/g16/g16/l1.exe PID=     29303.
  
 Copyright (c) 1988,1990,1992,1993,1995,1998,2003,2009,2016,
            Gaussian, Inc.  All Rights Reserved.
  
 This is part of the Gaussian(R) 16 program.  It is based on
 the Gaussian(R) 09 system (copyright 2009, Gaussian, Inc.),
 the Gaussian(R) 03 system (copyright 2003, Gaussian, Inc.),
 the Gaussian(R) 98 system (copyright 1998, Gaussian, Inc.),
 the Gaussian(R) 94 system (copyright 1995, Gaussian, Inc.),
 the Gaussian 92(TM) system (copyright 1992, Gaussian, Inc.),
 the Gaussian 90(TM) system (copyright 1990, Gaussian, Inc.),
 the Gaussian 88(TM) system (copyright 1988, Gaussian, Inc.),
 the Gaussian 86(TM) system (copyright 1986, Carnegie Mellon
 University), and the Gaussian 82(TM) system (copyright 1983,
 Carnegie Mellon University). Gaussian is a federally registered
 trademark of Gaussian, Inc.
  
 This software contains proprietary and confidential information,
 including trade secrets, belonging to Gaussian, Inc.
  
 This software is provided under written license and may be
 used, copied, transmitted, or stored only in accord with that
 written license.
  
 The following legend is applicable only to US Government
 contracts under FAR:
  
                    RESTRICTED RIGHTS LEGEND
  
 Use, reproduction and disclosure by the US Government is
 subject to restrictions as set forth in subparagraphs (a)
 and (c) of the Commercial Computer Software - Restricted
 Rights clause in FAR 52.227-19.
  
 Gaussian, Inc.
 340 Quinnipiac St., Bldg. 40, Wallingford CT 06492
  
  
 ---------------------------------------------------------------
 Warning -- This program may not be used in any manner that
 competes with the business of Gaussian, Inc. or will provide
 assistance to any competitor of Gaussian, Inc.  The licensee
 of this program is prohibited from giving any competitor of
 Gaussian, Inc. access to this program.  By using this program,
 the user acknowledges that Gaussian, Inc. is engaged in the
 business of creating and licensing software in the field of
 computational chemistry and represents and warrants to the
 licensee that it is not a competitor of Gaussian, Inc. and that
 it will not use this program in any manner prohibited above.
 ---------------------------------------------------------------
  

 Cite this work as:
 Gaussian 16, Revision A.03,
 M. J. Frisch, G. W. Trucks, H. B. Schlegel, G. E. Scuseria, 
 M. A. Robb, J. R. Cheeseman, G. Scalmani, V. Barone, 
 G. A. Petersson, H. Nakatsuji, X. Li, M. Caricato, A. V. Marenich, 
 J. Bloino, B. G. Janesko, R. Gomperts, B. Mennucci, H. P. Hratchian, 
 J. V. Ortiz, A. F. Izmaylov, J. L. Sonnenberg, D. Williams-Young, 
 F. Ding, F. Lipparini, F. Egidi, J. Goings, B. Peng, A. Petrone, 
 T. Henderson, D. Ranasinghe, V. G. Zakrzewski, J. Gao, N. Rega, 
 G. Zheng, W. Liang, M. Hada, M. Ehara, K. Toyota, R. Fukuda, 
 J. Hasegawa, M. Ishida, T. Nakajima, Y. Honda, O. Kitao, H. Nakai, 
 T. Vreven, K. Throssell, J. A. Montgomery, Jr., J. E. Peralta, 
 F. Ogliaro, M. J. Bearpark, J. J. Heyd, E. N. Brothers, K. N. Kudin, 
 V. N. Staroverov, T. A. Keith, R. Kobayashi, J. Normand, 
 K. Raghavachari, A. P. Rendell, J. C. Burant, S. S. Iyengar, 
 J. Tomasi, M. Cossi, J. M. Millam, M. Klene, C. Adamo, R. Cammi, 
 J. W. Ochterski, R. L. Martin, K. Morokuma, O. Farkas, 
 J. B. Foresman, and D. J. Fox, Gaussian, Inc., Wallingford CT, 2016.
 
 ******************************************
 Gaussian 16:  ES64L-G16RevA.03 25-Dec-2016
                25-Mar-2019 
 ******************************************
 %chk=trimero_jaula_b3lypd3_n07d_ccl4_of_pcm.chk
 %mem=2GB
 %nprocshared=8
 Will use up to    8 processors via shared memory.
 ----------------------------------------------------------------------
 #p opt freq b3lyp/gen scrf=(solvent=ccl4,pcm) geom=connectivity empiri
 caldispersion=gd3
 ----------------------------------------------------------------------
 1/18=20,19=15,26=3,38=1,57=2/1,3;
 2/9=110,12=2,17=6,18=5,40=1/2;
 3/5=7,11=2,25=1,30=1,70=2201,71=1,72=11,74=-5,124=31/1,2,3;
 4//1;
 5/5=2,38=5,53=11/2;
 6/7=2,8=2,9=2,10=2,28=1/1;
 7//1,2,3,16;
 1/18=20,19=15,26=3/3(2);
 2/9=110/2;
 99//99;
 2/9=110/2;
 3/5=7,6=1,11=2,25=1,30=1,70=2205,71=1,72=11,74=-5,82=7,124=31/1,2,3;
 4/5=5,16=3,69=1/1;
 5/5=2,38=5,53=11/2;
 7//1,2,3,16;
 1/18=20,19=15,26=3/3(-5);
 2/9=110/2;
 6/7=2,8=2,9=2,10=2,19=2,28=1/1;
 99/9=1/99;
 Leave Link    1 at Mon Mar 25 14:18:00 2019, MaxMem=   268435456 cpu:               0.7 elap:               0.1
 (Enter /home/apps/g16/g16/l101.exe)
 -------
 Título
 -------
 Symbolic Z-matrix:
 Charge =  0 Multiplicity = 1
 C                    -4.15078   0.65566  -0.51841 
 C                    -3.58364   1.38977  -1.56608 
 C                    -2.29439   1.91021  -1.41909 
 C                    -1.56982   1.7016   -0.24218 
 C                    -2.14836   0.96383   0.79666 
 C                    -3.43924   0.44049   0.66358 
 H                    -5.15333   0.24766  -0.61887 
 H                    -4.1401    1.55427  -2.48451 
 H                    -1.83999   2.4798   -2.22561 
 H                    -3.8655   -0.12542   1.4872 
 H                    -0.56209   2.09526  -0.13912 
 O                    -1.48012   0.68961   1.96546 
 H                    -0.5978    1.10878   1.97023 
 C                     1.50757  -3.92251  -0.51841 
 C                     0.58824  -3.79841  -1.56608 
 C                    -0.50709  -2.9421   -1.41909 
 C                    -0.68872  -2.2103   -0.24218 
 C                     0.23948  -2.34245   0.79666 
 C                     1.33815  -3.19872   0.66358 
 H                     2.36219  -4.58675  -0.61887 
 H                     0.72401  -4.36257  -2.48451 
 H                    -1.22758  -2.83338  -2.22561 
 H                     2.04137  -3.28491   1.4872 
 C                     1.90888   1.37862   0.79666 
 C                     2.25853   0.5087   -0.24218 
 C                     2.80148   1.03189  -1.41909 
 C                     2.9954    2.40864  -1.56608 
 C                     2.64321   3.26685  -0.51841 
 C                     2.10109   2.75823   0.66358 
 H                     2.09559  -0.56084  -0.13912 
 H                     3.06757   0.35358  -2.22561 
 H                     3.41609   2.8083   -2.48451 
 H                     2.79114   4.33909  -0.61887 
 H                     1.82413   3.41033   1.4872 
 O                     1.33728   0.93701   1.96546 
 H                     1.25913  -0.03668   1.97023 
 H                    -1.5335   -1.53442  -0.13912 
 O                     0.14284  -1.62662   1.96546 
 H                    -0.66134  -1.0721    1.97023 
 
 Add virtual bond connecting atoms H39        and O12        Dist= 3.67D+00.
 Add virtual bond connecting atoms O35        and H13        Dist= 3.67D+00.
 Add virtual bond connecting atoms H36        and O38        Dist= 3.67D+00.
 ITRead=  0  0  0  0  0  0  0  0  0  0  0  0  0  0  0  0  0  0  0  0
 ITRead=  0  0  0  0  0  0  0  0  0  0  0  0  0  0  0  0  0  0  0
 MicOpt= -1 -1 -1 -1 -1 -1 -1 -1 -1 -1 -1 -1 -1 -1 -1 -1 -1 -1 -1 -1
 MicOpt= -1 -1 -1 -1 -1 -1 -1 -1 -1 -1 -1 -1 -1 -1 -1 -1 -1 -1 -1
 NAtoms=     39 NQM=       39 NQMF=       0 NMMI=      0 NMMIF=      0
                NMic=       0 NMicF=      0.
                    Isotopes and Nuclear Properties:
 (Nuclear quadrupole moments (NQMom) in fm**2, nuclear magnetic moments (NMagM)
  in nuclear magnetons)

  Atom         1           2           3           4           5           6           7           8           9          10
 IAtWgt=          12          12          12          12          12          12           1           1           1           1
 AtmWgt=  12.0000000  12.0000000  12.0000000  12.0000000  12.0000000  12.0000000   1.0078250   1.0078250   1.0078250   1.0078250
 NucSpn=           0           0           0           0           0           0           1           1           1           1
 AtZEff=  -0.0000000  -0.0000000  -0.0000000  -0.0000000  -0.0000000  -0.0000000  -0.0000000  -0.0000000  -0.0000000  -0.0000000
 NQMom=    0.0000000   0.0000000   0.0000000   0.0000000   0.0000000   0.0000000   0.0000000   0.0000000   0.0000000   0.0000000
 NMagM=    0.0000000   0.0000000   0.0000000   0.0000000   0.0000000   0.0000000   2.7928460   2.7928460   2.7928460   2.7928460
 AtZNuc=   6.0000000   6.0000000   6.0000000   6.0000000   6.0000000   6.0000000   1.0000000   1.0000000   1.0000000   1.0000000

  Atom        11          12          13          14          15          16          17          18          19          20
 IAtWgt=           1          16           1          12          12          12          12          12          12           1
 AtmWgt=   1.0078250  15.9949146   1.0078250  12.0000000  12.0000000  12.0000000  12.0000000  12.0000000  12.0000000   1.0078250
 NucSpn=           1           0           1           0           0           0           0           0           0           1
 AtZEff=  -0.0000000  -0.0000000  -0.0000000  -0.0000000  -0.0000000  -0.0000000  -0.0000000  -0.0000000  -0.0000000  -0.0000000
 NQMom=    0.0000000   0.0000000   0.0000000   0.0000000   0.0000000   0.0000000   0.0000000   0.0000000   0.0000000   0.0000000
 NMagM=    2.7928460   0.0000000   2.7928460   0.0000000   0.0000000   0.0000000   0.0000000   0.0000000   0.0000000   2.7928460
 AtZNuc=   1.0000000   8.0000000   1.0000000   6.0000000   6.0000000   6.0000000   6.0000000   6.0000000   6.0000000   1.0000000

  Atom        21          22          23          24          25          26          27          28          29          30
 IAtWgt=           1           1           1          12          12          12          12          12          12           1
 AtmWgt=   1.0078250   1.0078250   1.0078250  12.0000000  12.0000000  12.0000000  12.0000000  12.0000000  12.0000000   1.0078250
 NucSpn=           1           1           1           0           0           0           0           0           0           1
 AtZEff=  -0.0000000  -0.0000000  -0.0000000  -0.0000000  -0.0000000  -0.0000000  -0.0000000  -0.0000000  -0.0000000  -0.0000000
 NQMom=    0.0000000   0.0000000   0.0000000   0.0000000   0.0000000   0.0000000   0.0000000   0.0000000   0.0000000   0.0000000
 NMagM=    2.7928460   2.7928460   2.7928460   0.0000000   0.0000000   0.0000000   0.0000000   0.0000000   0.0000000   2.7928460
 AtZNuc=   1.0000000   1.0000000   1.0000000   6.0000000   6.0000000   6.0000000   6.0000000   6.0000000   6.0000000   1.0000000

  Atom        31          32          33          34          35          36          37          38          39
 IAtWgt=           1           1           1           1          16           1           1          16           1
 AtmWgt=   1.0078250   1.0078250   1.0078250   1.0078250  15.9949146   1.0078250   1.0078250  15.9949146   1.0078250
 NucSpn=           1           1           1           1           0           1           1           0           1
 AtZEff=  -0.0000000  -0.0000000  -0.0000000  -0.0000000  -0.0000000  -0.0000000  -0.0000000  -0.0000000  -0.0000000
 NQMom=    0.0000000   0.0000000   0.0000000   0.0000000   0.0000000   0.0000000   0.0000000   0.0000000   0.0000000
 NMagM=    2.7928460   2.7928460   2.7928460   2.7928460   0.0000000   2.7928460   2.7928460   0.0000000   2.7928460
 AtZNuc=   1.0000000   1.0000000   1.0000000   1.0000000   8.0000000   1.0000000   1.0000000   8.0000000   1.0000000
 Leave Link  101 at Mon Mar 25 14:18:01 2019, MaxMem=   268435456 cpu:               1.7 elap:               0.2
 (Enter /home/apps/g16/g16/l103.exe)

 GradGradGradGradGradGradGradGradGradGradGradGradGradGradGradGradGradGrad
 Berny optimization.
 Initialization pass.
                           ----------------------------
                           !    Initial Parameters    !
                           ! (Angstroms and Degrees)  !
 --------------------------                            --------------------------
 ! Name  Definition              Value          Derivative Info.                !
 --------------------------------------------------------------------------------
 ! R1    R(1,2)                  1.3993         estimate D2E/DX2                !
 ! R2    R(1,6)                  1.3963         estimate D2E/DX2                !
 ! R3    R(1,7)                  1.0871         estimate D2E/DX2                !
 ! R4    R(2,3)                  1.3981         estimate D2E/DX2                !
 ! R5    R(2,8)                  1.0864         estimate D2E/DX2                !
 ! R6    R(3,4)                  1.3977         estimate D2E/DX2                !
 ! R7    R(3,9)                  1.0869         estimate D2E/DX2                !
 ! R8    R(4,5)                  1.3994         estimate D2E/DX2                !
 ! R9    R(4,11)                 1.0868         estimate D2E/DX2                !
 ! R10   R(5,6)                  1.3993         estimate D2E/DX2                !
 ! R11   R(5,12)                 1.374          estimate D2E/DX2                !
 ! R12   R(6,10)                 1.0864         estimate D2E/DX2                !
 ! R13   R(12,13)                0.9768         estimate D2E/DX2                !
 ! R14   R(12,39)                1.9427         estimate D2E/DX2                !
 ! R15   R(13,35)                1.9427         estimate D2E/DX2                !
 ! R16   R(14,15)                1.3993         estimate D2E/DX2                !
 ! R17   R(14,19)                1.3963         estimate D2E/DX2                !
 ! R18   R(14,20)                1.0871         estimate D2E/DX2                !
 ! R19   R(15,16)                1.3981         estimate D2E/DX2                !
 ! R20   R(15,21)                1.0864         estimate D2E/DX2                !
 ! R21   R(16,17)                1.3977         estimate D2E/DX2                !
 ! R22   R(16,22)                1.0869         estimate D2E/DX2                !
 ! R23   R(17,18)                1.3994         estimate D2E/DX2                !
 ! R24   R(17,37)                1.0868         estimate D2E/DX2                !
 ! R25   R(18,19)                1.3993         estimate D2E/DX2                !
 ! R26   R(18,38)                1.374          estimate D2E/DX2                !
 ! R27   R(19,23)                1.0864         estimate D2E/DX2                !
 ! R28   R(24,25)                1.3994         estimate D2E/DX2                !
 ! R29   R(24,29)                1.3993         estimate D2E/DX2                !
 ! R30   R(24,35)                1.374          estimate D2E/DX2                !
 ! R31   R(25,26)                1.3977         estimate D2E/DX2                !
 ! R32   R(25,30)                1.0868         estimate D2E/DX2                !
 ! R33   R(26,27)                1.3981         estimate D2E/DX2                !
 ! R34   R(26,31)                1.0869         estimate D2E/DX2                !
 ! R35   R(27,28)                1.3993         estimate D2E/DX2                !
 ! R36   R(27,32)                1.0864         estimate D2E/DX2                !
 ! R37   R(28,29)                1.3963         estimate D2E/DX2                !
 ! R38   R(28,33)                1.0871         estimate D2E/DX2                !
 ! R39   R(29,34)                1.0864         estimate D2E/DX2                !
 ! R40   R(35,36)                0.9768         estimate D2E/DX2                !
 ! R41   R(36,38)                1.9427         estimate D2E/DX2                !
 ! R42   R(38,39)                0.9768         estimate D2E/DX2                !
 ! A1    A(2,1,6)              120.5365         estimate D2E/DX2                !
 ! A2    A(2,1,7)              120.099          estimate D2E/DX2                !
 ! A3    A(6,1,7)              119.3645         estimate D2E/DX2                !
 ! A4    A(1,2,3)              119.3608         estimate D2E/DX2                !
 ! A5    A(1,2,8)              120.3171         estimate D2E/DX2                !
 ! A6    A(3,2,8)              120.322          estimate D2E/DX2                !
 ! A7    A(2,3,4)              120.7311         estimate D2E/DX2                !
 ! A8    A(2,3,9)              120.1707         estimate D2E/DX2                !
 ! A9    A(4,3,9)              119.0973         estimate D2E/DX2                !
 ! A10   A(3,4,5)              119.3048         estimate D2E/DX2                !
 ! A11   A(3,4,11)             120.4288         estimate D2E/DX2                !
 ! A12   A(5,4,11)             120.2605         estimate D2E/DX2                !
 ! A13   A(4,5,6)              120.5299         estimate D2E/DX2                !
 ! A14   A(4,5,12)             122.3884         estimate D2E/DX2                !
 ! A15   A(6,5,12)             117.0608         estimate D2E/DX2                !
 ! A16   A(1,6,5)              119.5366         estimate D2E/DX2                !
 ! A17   A(1,6,10)             121.4719         estimate D2E/DX2                !
 ! A18   A(5,6,10)             118.9915         estimate D2E/DX2                !
 ! A19   A(5,12,13)            110.9653         estimate D2E/DX2                !
 ! A20   A(5,12,39)            112.8337         estimate D2E/DX2                !
 ! A21   A(13,12,39)            90.4835         estimate D2E/DX2                !
 ! A22   A(12,13,35)           149.513          estimate D2E/DX2                !
 ! A23   A(15,14,19)           120.5365         estimate D2E/DX2                !
 ! A24   A(15,14,20)           120.099          estimate D2E/DX2                !
 ! A25   A(19,14,20)           119.3645         estimate D2E/DX2                !
 ! A26   A(14,15,16)           119.3608         estimate D2E/DX2                !
 ! A27   A(14,15,21)           120.3171         estimate D2E/DX2                !
 ! A28   A(16,15,21)           120.322          estimate D2E/DX2                !
 ! A29   A(15,16,17)           120.7311         estimate D2E/DX2                !
 ! A30   A(15,16,22)           120.1707         estimate D2E/DX2                !
 ! A31   A(17,16,22)           119.0973         estimate D2E/DX2                !
 ! A32   A(16,17,18)           119.3048         estimate D2E/DX2                !
 ! A33   A(16,17,37)           120.4288         estimate D2E/DX2                !
 ! A34   A(18,17,37)           120.2605         estimate D2E/DX2                !
 ! A35   A(17,18,19)           120.5299         estimate D2E/DX2                !
 ! A36   A(17,18,38)           122.3884         estimate D2E/DX2                !
 ! A37   A(19,18,38)           117.0608         estimate D2E/DX2                !
 ! A38   A(14,19,18)           119.5366         estimate D2E/DX2                !
 ! A39   A(14,19,23)           121.4719         estimate D2E/DX2                !
 ! A40   A(18,19,23)           118.9915         estimate D2E/DX2                !
 ! A41   A(25,24,29)           120.5299         estimate D2E/DX2                !
 ! A42   A(25,24,35)           122.3884         estimate D2E/DX2                !
 ! A43   A(29,24,35)           117.0608         estimate D2E/DX2                !
 ! A44   A(24,25,26)           119.3048         estimate D2E/DX2                !
 ! A45   A(24,25,30)           120.2605         estimate D2E/DX2                !
 ! A46   A(26,25,30)           120.4288         estimate D2E/DX2                !
 ! A47   A(25,26,27)           120.7311         estimate D2E/DX2                !
 ! A48   A(25,26,31)           119.0973         estimate D2E/DX2                !
 ! A49   A(27,26,31)           120.1707         estimate D2E/DX2                !
 ! A50   A(26,27,28)           119.3608         estimate D2E/DX2                !
 ! A51   A(26,27,32)           120.322          estimate D2E/DX2                !
 ! A52   A(28,27,32)           120.3171         estimate D2E/DX2                !
 ! A53   A(27,28,29)           120.5365         estimate D2E/DX2                !
 ! A54   A(27,28,33)           120.099          estimate D2E/DX2                !
 ! A55   A(29,28,33)           119.3645         estimate D2E/DX2                !
 ! A56   A(24,29,28)           119.5366         estimate D2E/DX2                !
 ! A57   A(24,29,34)           118.9915         estimate D2E/DX2                !
 ! A58   A(28,29,34)           121.4719         estimate D2E/DX2                !
 ! A59   A(13,35,24)           112.8337         estimate D2E/DX2                !
 ! A60   A(13,35,36)            90.4835         estimate D2E/DX2                !
 ! A61   A(24,35,36)           110.9653         estimate D2E/DX2                !
 ! A62   A(35,36,38)           149.513          estimate D2E/DX2                !
 ! A63   A(18,38,36)           112.8337         estimate D2E/DX2                !
 ! A64   A(18,38,39)           110.9654         estimate D2E/DX2                !
 ! A65   A(36,38,39)            90.4835         estimate D2E/DX2                !
 ! A66   A(12,39,38)           149.513          estimate D2E/DX2                !
 ! D1    D(6,1,2,3)             -0.0974         estimate D2E/DX2                !
 ! D2    D(6,1,2,8)            179.9449         estimate D2E/DX2                !
 ! D3    D(7,1,2,3)            179.847          estimate D2E/DX2                !
 ! D4    D(7,1,2,8)             -0.1107         estimate D2E/DX2                !
 ! D5    D(2,1,6,5)             -0.0673         estimate D2E/DX2                !
 ! D6    D(2,1,6,10)           179.8792         estimate D2E/DX2                !
 ! D7    D(7,1,6,5)            179.9879         estimate D2E/DX2                !
 ! D8    D(7,1,6,10)            -0.0656         estimate D2E/DX2                !
 ! D9    D(1,2,3,4)              0.165          estimate D2E/DX2                !
 ! D10   D(1,2,3,9)            179.813          estimate D2E/DX2                !
 ! D11   D(8,2,3,4)           -179.8773         estimate D2E/DX2                !
 ! D12   D(8,2,3,9)             -0.2292         estimate D2E/DX2                !
 ! D13   D(2,3,4,5)             -0.0665         estimate D2E/DX2                !
 ! D14   D(2,3,4,11)           179.0477         estimate D2E/DX2                !
 ! D15   D(9,3,4,5)           -179.7182         estimate D2E/DX2                !
 ! D16   D(9,3,4,11)            -0.6041         estimate D2E/DX2                !
 ! D17   D(3,4,5,6)             -0.1011         estimate D2E/DX2                !
 ! D18   D(3,4,5,12)           178.1852         estimate D2E/DX2                !
 ! D19   D(11,4,5,6)          -179.2168         estimate D2E/DX2                !
 ! D20   D(11,4,5,12)           -0.9305         estimate D2E/DX2                !
 ! D21   D(4,5,6,1)              0.1675         estimate D2E/DX2                !
 ! D22   D(4,5,6,10)          -179.7803         estimate D2E/DX2                !
 ! D23   D(12,5,6,1)          -178.2075         estimate D2E/DX2                !
 ! D24   D(12,5,6,10)            1.8446         estimate D2E/DX2                !
 ! D25   D(4,5,12,13)            2.6343         estimate D2E/DX2                !
 ! D26   D(4,5,12,39)          -97.2199         estimate D2E/DX2                !
 ! D27   D(6,5,12,13)         -179.0232         estimate D2E/DX2                !
 ! D28   D(6,5,12,39)           81.1226         estimate D2E/DX2                !
 ! D29   D(5,12,13,35)        -113.8645         estimate D2E/DX2                !
 ! D30   D(39,12,13,35)          0.8956         estimate D2E/DX2                !
 ! D31   D(5,12,39,38)         111.9948         estimate D2E/DX2                !
 ! D32   D(13,12,39,38)         -1.0714         estimate D2E/DX2                !
 ! D33   D(12,13,35,24)        111.9948         estimate D2E/DX2                !
 ! D34   D(12,13,35,36)         -1.0714         estimate D2E/DX2                !
 ! D35   D(19,14,15,16)         -0.0974         estimate D2E/DX2                !
 ! D36   D(19,14,15,21)        179.9449         estimate D2E/DX2                !
 ! D37   D(20,14,15,16)        179.847          estimate D2E/DX2                !
 ! D38   D(20,14,15,21)         -0.1107         estimate D2E/DX2                !
 ! D39   D(15,14,19,18)         -0.0673         estimate D2E/DX2                !
 ! D40   D(15,14,19,23)        179.8792         estimate D2E/DX2                !
 ! D41   D(20,14,19,18)        179.9879         estimate D2E/DX2                !
 ! D42   D(20,14,19,23)         -0.0656         estimate D2E/DX2                !
 ! D43   D(14,15,16,17)          0.165          estimate D2E/DX2                !
 ! D44   D(14,15,16,22)        179.813          estimate D2E/DX2                !
 ! D45   D(21,15,16,17)       -179.8773         estimate D2E/DX2                !
 ! D46   D(21,15,16,22)         -0.2292         estimate D2E/DX2                !
 ! D47   D(15,16,17,18)         -0.0665         estimate D2E/DX2                !
 ! D48   D(15,16,17,37)        179.0477         estimate D2E/DX2                !
 ! D49   D(22,16,17,18)       -179.7182         estimate D2E/DX2                !
 ! D50   D(22,16,17,37)         -0.6041         estimate D2E/DX2                !
 ! D51   D(16,17,18,19)         -0.1011         estimate D2E/DX2                !
 ! D52   D(16,17,18,38)        178.1853         estimate D2E/DX2                !
 ! D53   D(37,17,18,19)       -179.2168         estimate D2E/DX2                !
 ! D54   D(37,17,18,38)         -0.9305         estimate D2E/DX2                !
 ! D55   D(17,18,19,14)          0.1675         estimate D2E/DX2                !
 ! D56   D(17,18,19,23)       -179.7803         estimate D2E/DX2                !
 ! D57   D(38,18,19,14)       -178.2075         estimate D2E/DX2                !
 ! D58   D(38,18,19,23)          1.8446         estimate D2E/DX2                !
 ! D59   D(17,18,38,36)        -97.2199         estimate D2E/DX2                !
 ! D60   D(17,18,38,39)          2.6343         estimate D2E/DX2                !
 ! D61   D(19,18,38,36)         81.1226         estimate D2E/DX2                !
 ! D62   D(19,18,38,39)       -179.0232         estimate D2E/DX2                !
 ! D63   D(29,24,25,26)         -0.1011         estimate D2E/DX2                !
 ! D64   D(29,24,25,30)       -179.2168         estimate D2E/DX2                !
 ! D65   D(35,24,25,26)        178.1852         estimate D2E/DX2                !
 ! D66   D(35,24,25,30)         -0.9305         estimate D2E/DX2                !
 ! D67   D(25,24,29,28)          0.1675         estimate D2E/DX2                !
 ! D68   D(25,24,29,34)       -179.7803         estimate D2E/DX2                !
 ! D69   D(35,24,29,28)       -178.2075         estimate D2E/DX2                !
 ! D70   D(35,24,29,34)          1.8446         estimate D2E/DX2                !
 ! D71   D(25,24,35,13)        -97.2199         estimate D2E/DX2                !
 ! D72   D(25,24,35,36)          2.6343         estimate D2E/DX2                !
 ! D73   D(29,24,35,13)         81.1226         estimate D2E/DX2                !
 ! D74   D(29,24,35,36)       -179.0232         estimate D2E/DX2                !
 ! D75   D(24,25,26,27)         -0.0665         estimate D2E/DX2                !
 ! D76   D(24,25,26,31)       -179.7182         estimate D2E/DX2                !
 ! D77   D(30,25,26,27)        179.0477         estimate D2E/DX2                !
 ! D78   D(30,25,26,31)         -0.6041         estimate D2E/DX2                !
 ! D79   D(25,26,27,28)          0.165          estimate D2E/DX2                !
 ! D80   D(25,26,27,32)       -179.8773         estimate D2E/DX2                !
 ! D81   D(31,26,27,28)        179.813          estimate D2E/DX2                !
 ! D82   D(31,26,27,32)         -0.2292         estimate D2E/DX2                !
 ! D83   D(26,27,28,29)         -0.0974         estimate D2E/DX2                !
 ! D84   D(26,27,28,33)        179.847          estimate D2E/DX2                !
 ! D85   D(32,27,28,29)        179.9449         estimate D2E/DX2                !
 ! D86   D(32,27,28,33)         -0.1107         estimate D2E/DX2                !
 ! D87   D(27,28,29,24)         -0.0673         estimate D2E/DX2                !
 ! D88   D(27,28,29,34)        179.8792         estimate D2E/DX2                !
 ! D89   D(33,28,29,24)        179.9879         estimate D2E/DX2                !
 ! D90   D(33,28,29,34)         -0.0656         estimate D2E/DX2                !
 ! D91   D(13,35,36,38)          0.8956         estimate D2E/DX2                !
 ! D92   D(24,35,36,38)       -113.8645         estimate D2E/DX2                !
 ! D93   D(35,36,38,18)        111.9948         estimate D2E/DX2                !
 ! D94   D(35,36,38,39)         -1.0714         estimate D2E/DX2                !
 ! D95   D(18,38,39,12)       -113.8645         estimate D2E/DX2                !
 ! D96   D(36,38,39,12)          0.8956         estimate D2E/DX2                !
 --------------------------------------------------------------------------------
 Trust Radius=3.00D-01 FncErr=1.00D-07 GrdErr=1.00D-06 EigMax=2.50D+02 EigMin=1.00D-04
 Number of steps in this run=    214 maximum allowed number of steps=    234.
 GradGradGradGradGradGradGradGradGradGradGradGradGradGradGradGradGradGrad

 Leave Link  103 at Mon Mar 25 14:18:01 2019, MaxMem=   268435456 cpu:               0.1 elap:               0.0
 (Enter /home/apps/g16/g16/l202.exe)
                          Input orientation:                          
 ---------------------------------------------------------------------
 Center     Atomic      Atomic             Coordinates (Angstroms)
 Number     Number       Type             X           Y           Z
 ---------------------------------------------------------------------
      1          6           0       -4.150776    0.655662   -0.518407
      2          6           0       -3.583642    1.389772   -1.566077
      3          6           0       -2.294388    1.910207   -1.419087
      4          6           0       -1.569816    1.701595   -0.242178
      5          6           0       -2.148357    0.963832    0.796662
      6          6           0       -3.439243    0.440487    0.663582
      7          1           0       -5.153333    0.247657   -0.618867
      8          1           0       -4.140099    1.554270   -2.484507
      9          1           0       -1.839993    2.479804   -2.225607
     10          1           0       -3.865502   -0.125421    1.487202
     11          1           0       -0.562091    2.095260   -0.139118
     12          8           0       -1.480115    0.689611    1.965462
     13          1           0       -0.597799    1.108783    1.970232
     14          6           0        1.507568   -3.922508   -0.518407
     15          6           0        0.588243   -3.798411   -1.566077
     16          6           0       -0.507094   -2.942101   -1.419087
     17          6           0       -0.688717   -2.210298   -0.242178
     18          6           0        0.239475   -2.342447    0.796662
     19          6           0        1.338149   -3.198715    0.663582
     20          1           0        2.362189   -4.586746   -0.618867
     21          1           0        0.724012   -4.362565   -2.484507
     22          1           0       -1.227577   -2.833383   -2.225607
     23          1           0        2.041369   -3.284913    1.487202
     24          6           0        1.908881    1.378615    0.796662
     25          6           0        2.258533    0.508702   -0.242178
     26          6           0        2.801482    1.031894   -1.419087
     27          6           0        2.995399    2.408639   -1.566077
     28          6           0        2.643207    3.266847   -0.518407
     29          6           0        2.101095    2.758228    0.663582
     30          1           0        2.095594   -0.560845   -0.139118
     31          1           0        3.067570    0.353578   -2.225607
     32          1           0        3.416086    2.808296   -2.484507
     33          1           0        2.791143    4.339089   -0.618867
     34          1           0        1.824134    3.410334    1.487202
     35          8           0        1.337278    0.937012    1.965462
     36          1           0        1.259134   -0.036683    1.970232
     37          1           0       -1.533503   -1.534416   -0.139118
     38          8           0        0.142837   -1.626623    1.965462
     39          1           0       -0.661335   -1.072101    1.970232
 ---------------------------------------------------------------------
                    Distance matrix (angstroms):
                    1          2          3          4          5
     1  C    0.000000
     2  C    1.399347   0.000000
     3  C    2.414806   1.398083   0.000000
     4  C    2.798506   2.430111   1.397727   0.000000
     5  C    2.415380   2.797142   2.413814   1.399354   0.000000
     6  C    1.396309   2.427628   2.794331   2.430135   1.399281
     7  H    1.087051   2.159992   3.402645   3.885541   3.398016
     8  H    2.161749   1.086378   2.160662   3.414103   3.883519
     9  H    3.403197   2.159505   1.086918   2.147696   3.395199
    10  H    2.171161   3.420201   3.880555   3.405719   2.147535
    11  H    3.885223   3.415215   2.161808   1.086785   2.161493
    12  O    3.647353   4.169750   3.688911   2.430192   1.373985
    13  H    4.361455   4.636776   3.874039   2.488172   1.950001
    14  C    7.278495   7.432251   7.020446   6.416941   6.242717
    15  C    6.587463   6.657467   6.396834   6.054750   5.979170
    16  C    5.199186   5.315250   5.171007   4.906976   4.781172
    17  C    4.502874   4.805602   4.576227   4.009893   3.644837
    18  C    5.476529   5.841937   5.423567   4.550495   4.078385
    19  C    6.810405   7.088697   6.605598   5.769723   5.431411
    20  H    8.361318   8.483448   8.033334   7.426021   7.290930
    21  H    7.267166   7.244915   7.042267   6.860301   6.883827
    22  H    4.861384   4.880682   4.928509   4.961567   4.939715
    23  H    7.608761   7.925651   7.364413   6.395051   6.006869
    24  C    6.242717   5.979170   4.781172   3.644837   4.078385
    25  C    6.416941   6.054750   4.906976   4.009893   4.550495
    26  C    7.020446   6.396834   5.171007   4.576227   5.423567
    27  C    7.432251   6.657467   5.315250   4.805602   5.841937
    28  C    7.278495   6.587463   5.199186   4.502874   5.476529
    29  C    6.701027   6.257818   4.937299   3.925870   4.614694
    30  H    6.375021   6.172102   5.197727   4.308653   4.605588
    31  H    7.423631   6.763675   5.641290   5.220775   6.059077
    32  H    8.109056   7.200827   5.878026   5.577817   6.717971
    33  H    7.859260   7.087564   5.692315   5.110404   6.147743
    34  H    6.878243   6.530637   5.259194   4.174857   4.716237
    35  O    6.030547   6.073896   5.058782   3.729538   3.676474
    36  H    5.994980   6.163824   5.282554   3.989902   3.740225
    37  H    3.433717   3.845797   3.752691   3.237856   2.737694
    38  O    5.460178   5.954583   5.468492   4.345560   3.650496
    39  H    4.621113   5.206359   4.800886   3.662442   2.780921
                    6          7          8          9         10
     6  C    0.000000
     7  H    2.149410   0.000000
     8  H    3.412063   2.492889   0.000000
     9  H    3.881216   4.306080   2.492816   0.000000
    10  H    1.086415   2.496642   4.321023   4.967378   0.000000
    11  H    3.414763   4.972253   4.312268   2.476761   4.299868
    12  O    2.365404   4.512937   5.255984   4.571582   2.565751
    13  H    3.198087   5.310166   5.708856   4.585609   3.526253
    14  C    6.701028   7.859260   8.109056   7.423631   6.878243
    15  C    6.257818   7.087564   7.200827   6.763675   6.530637
    16  C    4.937299   5.692315   5.878026   5.641290   5.259194
    17  C    3.925870   5.110404   5.577817   5.220775   4.174857
    18  C    4.614694   6.147743   6.717971   6.059077   4.716237
    19  C    6.005603   7.460663   7.906486   7.119943   6.099301
    20  H    7.782953   8.936136   9.136325   8.377116   7.945004
    21  H    7.093129   7.699217   7.659537   7.311578   7.402129
    22  H    4.894600   5.242707   5.272694   5.348365   5.298742
    23  H    6.677878   8.287238   8.797880   7.879206   6.698770
    24  C    5.431411   7.290930   6.883827   4.939715   6.006869
    25  C    5.769723   7.426021   6.860301   4.961567   6.395051
    26  C    6.605598   8.033334   7.042267   4.928509   7.364413
    27  C    7.088697   8.483448   7.244915   4.880682   7.925651
    28  C    6.810405   8.361318   7.267166   4.861384   7.608761
    29  C    6.005603   7.782953   7.093129   4.894600   6.677878
    30  H    5.681674   7.309636   6.989880   5.393313   6.194287
    31  H    7.119943   8.377116   7.311578   5.348365   7.879206
    32  H    7.906486   9.136325   7.659537   5.272694   8.797880
    33  H    7.460663   8.936136   7.699217   5.242707   8.287238
    34  H    6.099301   7.945004   7.402129   5.298742   6.698770
    35  O    4.975599   7.020114   7.084129   5.480905   5.331643
    36  H    4.899976   6.921272   7.178268   5.791576   5.148115
    37  H    2.859443   4.063140   4.672811   4.534461   3.173075
    38  O    4.335797   6.183939   6.947218   6.193498   4.306870
    39  H    3.422284   5.350069   6.232520   5.622306   3.375827
                   11         12         13         14         15
    11  H    0.000000
    12  O    2.692188   0.000000
    13  H    2.328898   0.976837   0.000000
    14  C    6.375021   6.030547   5.994980   0.000000
    15  C    6.172102   6.073896   6.163824   1.399347   0.000000
    16  C    5.197726   5.058782   5.282554   2.414806   1.398083
    17  C    4.308653   3.729538   3.989902   2.798506   2.430111
    18  C    4.605588   3.676474   3.740225   2.415380   2.797142
    19  C    5.681674   4.975599   4.899976   1.396309   2.427628
    20  H    7.309636   7.020114   6.921272   1.087051   2.159992
    21  H    6.989880   7.084129   7.178268   2.161749   1.086378
    22  H    5.393313   5.480905   5.791576   3.403197   2.159505
    23  H    6.194287   5.331643   5.148115   2.171161   3.420201
    24  C    2.737694   3.650496   2.780921   5.476529   5.841937
    25  C    3.237856   4.345560   3.662442   4.502874   4.805602
    26  C    3.752691   5.468492   4.800886   5.199186   5.315250
    27  C    3.845797   5.954583   5.206359   6.587463   6.657467
    28  C    3.433717   5.460178   4.621113   7.278495   7.432251
    29  C    2.859443   4.335797   3.422284   6.810405   7.088697
    30  H    3.757418   4.333428   3.806755   3.433717   3.845797
    31  H    4.534461   6.193498   5.622306   4.861384   4.880682
    32  H    4.672811   6.947218   6.232520   7.267166   7.244915
    33  H    4.063140   6.183939   5.350069   8.361318   8.483448
    34  H    3.173075   4.306870   3.375827   7.608761   7.925651
    35  O    3.062417   2.828235   1.942692   5.460178   5.954583
    36  H    3.508760   2.833904   2.181809   4.621113   5.206359
    37  H    3.757418   3.062417   3.508760   3.885223   3.415215
    38  O    4.333428   2.828235   2.833904   3.647353   4.169750
    39  H    3.806755   1.942692   2.181809   4.361455   4.636776
                   16         17         18         19         20
    16  C    0.000000
    17  C    1.397727   0.000000
    18  C    2.413814   1.399354   0.000000
    19  C    2.794331   2.430135   1.399281   0.000000
    20  H    3.402645   3.885541   3.398016   2.149410   0.000000
    21  H    2.160662   3.414103   3.883519   3.412063   2.492889
    22  H    1.086918   2.147696   3.395199   3.881216   4.306080
    23  H    3.880555   3.405719   2.147535   1.086415   2.496642
    24  C    5.423567   4.550495   4.078385   4.614694   6.147743
    25  C    4.576227   4.009893   3.644837   3.925870   5.110404
    26  C    5.171007   4.906976   4.781172   4.937299   5.692315
    27  C    6.396834   6.054750   5.979170   6.257818   7.087564
    28  C    7.020446   6.416941   6.242717   6.701027   7.859260
    29  C    6.605598   5.769723   5.431411   6.005603   7.460663
    30  H    3.752691   3.237856   2.737694   2.859443   4.063140
    31  H    4.928509   4.961567   4.939715   4.894600   5.242707
    32  H    7.042267   6.860301   6.883827   7.093129   7.699217
    33  H    8.033334   7.426021   7.290930   7.782953   8.936136
    34  H    7.364413   6.395051   6.006869   6.677878   8.287238
    35  O    5.468492   4.345560   3.650496   4.335797   6.183939
    36  H    4.800886   3.662442   2.780921   3.422284   5.350069
    37  H    2.161808   1.086785   2.161493   3.414763   4.972253
    38  O    3.688911   2.430192   1.373985   2.365404   4.512937
    39  H    3.874039   2.488172   1.950001   3.198087   5.310166
                   21         22         23         24         25
    21  H    0.000000
    22  H    2.492816   0.000000
    23  H    4.321023   4.967378   0.000000
    24  C    6.717971   6.059077   4.716237   0.000000
    25  C    5.577817   5.220775   4.174857   1.399354   0.000000
    26  C    5.878026   5.641290   5.259194   2.413814   1.397727
    27  C    7.200827   6.763675   6.530637   2.797143   2.430111
    28  C    8.109056   7.423631   6.878243   2.415380   2.798506
    29  C    7.906486   7.119943   6.099301   1.399281   2.430135
    30  H    4.672811   4.534461   3.173075   2.161493   1.086785
    31  H    5.272694   5.348365   5.298742   3.395199   2.147696
    32  H    7.659537   7.311578   7.402129   3.883519   3.414103
    33  H    9.136325   8.377116   7.945004   3.398016   3.885541
    34  H    8.797880   7.879206   6.698770   2.147535   3.405719
    35  O    6.947218   6.193498   4.306870   1.373985   2.430192
    36  H    6.232520   5.622306   3.375827   1.950001   2.488172
    37  H    4.312268   2.476761   4.299868   4.605588   4.308653
    38  O    5.255984   4.571582   2.565751   3.676474   3.729538
    39  H    5.708856   4.585609   3.526253   3.740225   3.989902
                   26         27         28         29         30
    26  C    0.000000
    27  C    1.398083   0.000000
    28  C    2.414806   1.399347   0.000000
    29  C    2.794331   2.427628   1.396309   0.000000
    30  H    2.161808   3.415215   3.885223   3.414763   0.000000
    31  H    1.086918   2.159505   3.403197   3.881216   2.476761
    32  H    2.160662   1.086378   2.161749   3.412063   4.312268
    33  H    3.402645   2.159992   1.087051   2.149410   4.972253
    34  H    3.880555   3.420201   2.171161   1.086415   4.299868
    35  O    3.688911   4.169750   3.647353   2.365404   2.692188
    36  H    3.874039   4.636776   4.361455   3.198086   2.328898
    37  H    5.197727   6.172102   6.375021   5.681674   3.757418
    38  O    5.058782   6.073896   6.030547   4.975599   3.062417
    39  H    5.282554   6.163824   5.994980   4.899976   3.508760
                   31         32         33         34         35
    31  H    0.000000
    32  H    2.492816   0.000000
    33  H    4.306080   2.492889   0.000000
    34  H    4.967378   4.321023   2.496642   0.000000
    35  O    4.571582   5.255984   4.512937   2.565751   0.000000
    36  H    4.585609   5.708856   5.310166   3.526253   0.976837
    37  H    5.393313   6.989880   7.309636   6.194287   4.333428
    38  O    5.480905   7.084129   7.020114   5.331643   2.828235
    39  H    5.791576   7.178268   6.921272   5.148115   2.833904
                   36         37         38         39
    36  H    0.000000
    37  H    3.806755   0.000000
    38  O    1.942692   2.692188   0.000000
    39  H    2.181809   2.328898   0.976837   0.000000
 Stoichiometry    C18H18O3
 Framework group  C3[X(C18H18O3)]
 Deg. of freedom    37
 Full point group                 C3      NOp   3
 Largest Abelian subgroup         C1      NOp   1
 Largest concise Abelian subgroup C1      NOp   1
                         Standard orientation:                         
 ---------------------------------------------------------------------
 Center     Atomic      Atomic             Coordinates (Angstroms)
 Number     Number       Type             X           Y           Z
 ---------------------------------------------------------------------
      1          6           0       -3.839136    1.708762   -0.518407
      2          6           0       -3.101157    2.270855   -1.566077
      3          6           0       -1.721085    2.439462   -1.419087
      4          6           0       -1.075310    2.050233   -0.242178
      5          6           0       -1.825252    1.487569    0.796662
      6          6           0       -3.207656    1.316574    0.663582
      7          1           0       -4.913171    1.574460   -0.618867
      8          1           0       -3.595988    2.573916   -2.484507
      9          1           0       -1.134621    2.871870   -2.225607
     10          1           0       -3.765988    0.880439    1.487202
     11          1           0        0.000000    2.169346   -0.139118
     12          8           0       -1.250885    1.049567    1.965462
     13          1           0       -0.290090    1.225810    1.970232
     14          6           0        0.439736   -4.179170   -0.518407
     15          6           0       -0.416039   -3.821108   -1.566077
     16          6           0       -1.252094   -2.710234   -1.419087
     17          6           0       -1.237899   -1.956363   -0.242178
     18          6           0       -0.375646   -2.324499    0.796662
     19          6           0        0.463642   -3.436198    0.663582
     20          1           0        1.093063   -5.042161   -0.618867
     21          1           0       -0.431082   -4.401175   -2.484507
     22          1           0       -1.919802   -2.418546   -2.225607
     23          1           0        1.120512   -3.701661    1.487202
     24          6           0        2.200899    0.836931    0.796662
     25          6           0        2.313209   -0.093871   -0.242178
     26          6           0        2.973178    0.270772   -1.419087
     27          6           0        3.517196    1.550254   -1.566077
     28          6           0        3.399400    2.470408   -0.518407
     29          6           0        2.744014    2.119625    0.663582
     30          1           0        1.878709   -1.084673   -0.139118
     31          1           0        3.054423   -0.453324   -2.225607
     32          1           0        4.027070    1.827259   -2.484507
     33          1           0        3.820108    3.467701   -0.618867
     34          1           0        2.645476    2.821222    1.487202
     35          8           0        1.534394    0.558515    1.965462
     36          1           0        1.206628   -0.361680    1.970232
     37          1           0       -1.878709   -1.084673   -0.139118
     38          8           0       -0.283509   -1.608082    1.965462
     39          1           0       -0.916538   -0.864131    1.970232
 ---------------------------------------------------------------------
 Rotational constants (GHZ):           0.2828059           0.2828059           0.1889665
 Leave Link  202 at Mon Mar 25 14:18:01 2019, MaxMem=   268435456 cpu:               1.2 elap:               0.2
 (Enter /home/apps/g16/g16/l301.exe)
 General basis read from cards:  (5D, 7F)
 Centers:       7      8      9     10     11     13     20     21     22     23
 Centers:      30     31     32     33     34     36     37     39
 6-31G
 P 1 1.00 0.000000000000
     Exponent=  7.5000000000D-01 Coefficients=  1.0000000000D+00
 ****
 Centers:       1      2      3      4      5      6     14     15     16     17
 Centers:      18     19     24     25     26     27     28     29
 6-31G
 S 1 1.00 0.000000000000
     Exponent=  7.5000000000D+00 Coefficients=  1.0000000000D+00
 P 1 1.00 0.000000000000
     Exponent=  5.0000000000D-02 Coefficients=  1.0000000000D+00
 D 1 1.00 0.000000000000
     Exponent=  8.2000000000D-01 Coefficients=  1.0000000000D+00
 ****
 Centers:      12     35     38
 6-31G
 S 1 1.00
     Exponent=  1.5100000000D+01 Coefficients=  1.0000000000D+00
 P 1 1.00 0.000000000000
     Exponent=  6.5000000000D-02 Coefficients=  1.0000000000D+00
 D 1 1.00 0.000000000000
     Exponent=  1.1900000000D+00 Coefficients=  1.0000000000D+00
 D 1 1.00 0.000000000000
     Exponent=  1.8000000000D-01 Coefficients=  1.0000000000D+00
 ****
 Ernie: Thresh=  0.10000D-02 Tol=  0.10000D-05 Strict=F.
 There are   507 symmetry adapted cartesian basis functions of A   symmetry.
 There are   483 symmetry adapted basis functions of A   symmetry.
   483 basis functions,   816 primitive gaussians,   507 cartesian basis functions
    75 alpha electrons       75 beta electrons
       nuclear repulsion energy      1592.0521440360 Hartrees.
 IExCor=  402 DFT=T Ex+Corr=B3LYP ExCW=0 ScaHFX=  0.200000
 ScaDFX=  0.800000  0.720000  1.000000  0.810000 ScalE2=  1.000000  1.000000
 IRadAn=      5 IRanWt=     -1 IRanGd=            0 ICorTp=0 IEmpDi=131
 NAtoms=   39 NActive=   39 NUniq=   13 SFac= 4.00D+00 NAtFMM=   60 NAOKFM=F Big=F
 Integral buffers will be    131072 words long.
 Raffenetti 2 integral format.
 Two-electron integral symmetry is turned on.
 R6Disp:  Grimme-D3 Dispersion energy=       -0.0383514015 Hartrees.
 Nuclear repulsion after empirical dispersion term =     1592.0137926345 Hartrees.
 ------------------------------------------------------------------------------
 Polarizable Continuum Model (PCM)
 =================================
 Model                : PCM.
 Atomic radii         : UFF (Universal Force Field).
 Polarization charges : Total charges.
 Charge compensation  : None.
 Solution method      : On-the-fly selection.
 Cavity type          : Scaled VdW (van der Waals Surface) (Alpha=1.100).
 Cavity algorithm     : GePol (No added spheres)
                        Default sphere list used, NSphG=   39.
                        Lebedev-Laikov grids with approx.  5.0 points / Ang**2.
                        Smoothing algorithm: York/Karplus (Gamma=1.0000).
                        Polarization charges: spherical gaussians, with
                                              point-specific exponents (IZeta= 3).
                        Self-potential: point-specific (ISelfS= 7).
                        Self-field    : sphere-specific E.n sum rule (ISelfD= 2).
 1st derivatives      : Analytical E(r).r(x)/FMM algorithm (CHGder, D1EAlg=3).
                        Cavity 1st derivative terms included.
 Solvent              : CarbonTetraChloride, Eps=   2.228000 Eps(inf)=   2.131892
 ------------------------------------------------------------------------------
 GePol: Number of generator spheres                  =      39
 GePol: Total number of spheres                      =      39
 GePol: Number of exposed spheres                    =      39 (100.00%)
 GePol: Number of points                             =    3039
 GePol: Average weight of points                     =       0.12
 GePol: Minimum weight of points                     =   0.52D-11
 GePol: Maximum weight of points                     =    0.20577
 GePol: Number of points with low weight             =     245
 GePol: Fraction of low-weight points (<1% of avg)   =       8.06%
 GePol: Cavity surface area                          =    375.853 Ang**2
 GePol: Cavity volume                                =    413.139 Ang**3
 Leave Link  301 at Mon Mar 25 14:18:01 2019, MaxMem=   268435456 cpu:               1.4 elap:               0.2
 (Enter /home/apps/g16/g16/l302.exe)
 NPDir=0 NMtPBC=     1 NCelOv=     1 NCel=       1 NClECP=     1 NCelD=      1
         NCelK=      1 NCelE2=     1 NClLst=     1 CellRange=     0.0.
 One-electron integrals computed using PRISM.
 One-electron integral symmetry used in STVInt
 NBasis=   483 RedAO= T EigKep=  1.93D-05  NBF=   483
 NBsUse=   483 1.00D-06 EigRej= -1.00D+00 NBFU=   483
 Precomputing XC quadrature grid using
 IXCGrd= 4 IRadAn=           5 IRanWt=          -1 IRanGd=           0 AccXCQ= 0.00D+00.
 Generated NRdTot=       0 NPtTot=           0 NUsed=           0 NTot=          32
 NSgBfM=   496   496   496   496   496 MxSgAt=    39 MxSgA2=    39.
 Leave Link  302 at Mon Mar 25 14:18:03 2019, MaxMem=   268435456 cpu:              15.7 elap:               2.0
 (Enter /home/apps/g16/g16/l303.exe)
 DipDrv:  MaxL=1.
 Leave Link  303 at Mon Mar 25 14:18:04 2019, MaxMem=   268435456 cpu:               1.0 elap:               0.2
 (Enter /home/apps/g16/g16/l401.exe)
 ExpMin= 5.00D-02 ExpMax= 5.48D+03 ExpMxC= 8.25D+02 IAcc=3 IRadAn=         5 AccDes= 0.00D+00
 Harris functional with IExCor=  402 and IRadAn=       5 diagonalized for initial guess.
 HarFok:  IExCor=  402 AccDes= 0.00D+00 IRadAn=         5 IDoV= 1 UseB2=F ITyADJ=14
 ICtDFT=  3500011 ScaDFX=  1.000000  1.000000  1.000000  1.000000
 FoFCou: FMM=F IPFlag=           0 FMFlag=      100000 FMFlg1=           0
         NFxFlg=           0 DoJE=T BraDBF=F KetDBF=T FulRan=T
         wScrn=  0.000000 ICntrl=       500 IOpCl=  0 I1Cent=   200000004 NGrid=           0
         NMat0=    1 NMatS0=      1 NMatT0=    0 NMatD0=    1 NMtDS0=    0 NMtDT0=    0
 Petite list used in FoFCou.
 Harris En= -922.550755284784    
 JPrj=0 DoOrth=F DoCkMO=F.
 Initial guess orbital symmetries:
       Occupied  (A) (E) (E) (E) (E) (A) (E) (E) (A) (A) (E) (E)
                 (A) (E) (E) (A) (E) (E) (A) (E) (E) (A) (E) (E)
                 (A) (E) (E) (E) (E) (A) (A) (E) (E) (A) (E) (E)
                 (A) (E) (E) (A) (E) (E) (E) (E) (A) (A) (E) (E)
                 (A) (E) (E) (E) (E) (A) (E) (E) (A) (A) (E) (E)
                 (E) (E) (A) (E) (E) (A) (A) (E) (E) (A) (E) (E)
                 (A) (E) (E)
       Virtual   (A) (E) (E) (A) (E) (E) (A) (E) (E) (A) (E) (E)
                 (A) (E) (E) (A) (E) (E) (A) (E) (E) (A) (E) (E)
                 (A) (E) (E) (A) (E) (E) (A) (E) (E) (A) (A) (E)
                 (E) (E) (E) (A) (A) (E) (E) (A) (E) (E) (E) (E)
                 (A) (E) (E) (A) (A) (E) (E) (E) (E) (A) (E) (E)
                 (A) (E) (E) (A) (A) (E) (E) (A) (E) (E) (A) (A)
                 (E) (E) (E) (E) (E) (E) (A) (E) (E) (A) (E) (E)
                 (E) (E) (A) (A) (E) (E) (A) (E) (E) (A) (E) (E)
                 (A) (A) (E) (E) (A) (E) (E) (A) (E) (E) (E) (E)
                 (A) (A) (E) (E) (A) (E) (E) (E) (E) (A) (E) (E)
                 (A) (E) (E) (A) (E) (E) (A) (E) (E) (A) (A) (E)
                 (E) (A) (E) (E) (A) (E) (E) (E) (E) (A) (A) (E)
                 (E) (A) (E) (E) (E) (E) (E) (E) (A) (A) (E) (E)
                 (A) (E) (E) (A) (A) (E) (E) (E) (E) (A) (E) (E)
                 (A) (E) (E) (A) (E) (E) (A) (A) (E) (E) (E) (E)
                 (A) (E) (E) (A) (E) (E) (A) (E) (E) (E) (E) (A)
                 (E) (E) (A) (A) (E) (E) (E) (E) (A) (E) (E) (A)
                 (A) (E) (E) (E) (E) (A) (A) (E) (E) (E) (E) (A)
                 (A) (E) (E) (A) (E) (E) (A) (E) (E) (E) (E) (A)
                 (E) (E) (A) (A) (E) (E) (A) (E) (E) (A) (E) (E)
                 (A) (E) (E) (E) (E) (A) (E) (E) (A) (A) (E) (E)
                 (E) (E) (A) (E) (E) (A) (E) (E) (A) (E) (E) (A)
                 (E) (E) (A) (A) (E) (E) (E) (E) (A) (E) (E) (A)
                 (A) (E) (E) (A) (E) (E) (E) (E) (A) (A) (E) (E)
                 (E) (E) (A) (A) (E) (E) (A) (E) (E) (A) (E) (E)
                 (A) (E) (E) (A) (E) (E) (A) (A) (E) (E) (E) (E)
                 (A) (E) (E) (A) (E) (E) (A) (E) (E) (A) (E) (E)
                 (A) (E) (E) (A) (E) (E) (E) (E) (A) (E) (E) (A)
                 (E) (E) (A) (E) (E) (A) (E) (E) (A) (A) (E) (E)
                 (A) (E) (E) (A) (E) (E) (E) (E) (A) (A) (E) (E)
                 (E) (E) (A) (E) (E) (A) (A) (E) (E) (E) (E) (A)
                 (A) (E) (E) (A) (E) (E) (E) (E) (A) (A) (E) (E)
                 (A) (E) (E) (A) (E) (E) (A) (E) (E) (E) (E) (A)
                 (E) (E) (A) (E) (E) (A) (E) (E) (A) (E) (E) (A)
 The electronic state of the initial guess is 1-A.
 Leave Link  401 at Mon Mar 25 14:18:10 2019, MaxMem=   268435456 cpu:              51.7 elap:               6.5
 (Enter /home/apps/g16/g16/l502.exe)
 Integral symmetry usage will be decided dynamically.
 Closed shell SCF:
 Using DIIS extrapolation, IDIIS=  1040.
 NGot=   268435456 LenX=   267911925 LenY=   267654369
 Requested convergence on RMS density matrix=1.00D-08 within 128 cycles.
 Requested convergence on MAX density matrix=1.00D-06.
 Requested convergence on             energy=1.00D-06.
 No special actions if energy rises.
 Fock matrices will be formed incrementally for  20 cycles.

 Cycle   1  Pass 1  IDiag  1:
 FoFJK:  IHMeth= 1 ICntrl=       0 DoSepK=F KAlg= 0 I1Cent=           0 FoldK=F
 IRaf= 780000000 NMat=       1 IRICut=       1 DoRegI=T DoRafI=F ISym2E= 1 IDoP0=0 IntGTp=1.
 FoFCou: FMM=F IPFlag=           0 FMFlag=      100000 FMFlg1=           0
         NFxFlg=           0 DoJE=F BraDBF=F KetDBF=F FulRan=T
         wScrn=  0.000000 ICntrl=         0 IOpCl=  0 I1Cent=           0 NGrid=           0
         NMat0=    1 NMatS0=      1 NMatT0=    0 NMatD0=    1 NMtDS0=    0 NMtDT0=    0
 Petite list used in FoFCou.
 Inv3:  Mode=1 IEnd=    27706563.
 Iteration    1 A*A^-1 deviation from unit magnitude is 8.99D-15 for   1434.
 Iteration    1 A*A^-1 deviation from orthogonality  is 3.33D-15 for   3039   2853.
 Iteration    1 A^-1*A deviation from unit magnitude is 7.66D-15 for   1434.
 Iteration    1 A^-1*A deviation from orthogonality  is 4.49D-15 for   3014    811.
 E= -922.045533508012    
 DIIS: error= 1.73D-02 at cycle   1 NSaved=   1.
 NSaved= 1 IEnMin= 1 EnMin= -922.045533508012     IErMin= 1 ErrMin= 1.73D-02
 ErrMax= 1.73D-02  0.00D+00 EMaxC= 1.00D-01 BMatC= 4.56D-01 BMatP= 4.56D-01
 IDIUse=3 WtCom= 8.27D-01 WtEn= 1.73D-01
 Coeff-Com:  0.100D+01
 Coeff-En:   0.100D+01
 Coeff:      0.100D+01
 Gap=     0.226 Goal=   None    Shift=    0.000
 GapD=    0.226 DampG=1.000 DampE=0.500 DampFc=0.5000 IDamp=-1.
 Damping current iteration by 5.00D-01
 RMSDP=3.44D-03 MaxDP=1.01D-01              OVMax= 2.13D-01

 Cycle   2  Pass 1  IDiag  1:
 RMSU=  1.68D-03    CP:  9.74D-01
 E= -922.258923710144     Delta-E=       -0.213390202131 Rises=F Damp=T
 DIIS: error= 4.24D-03 at cycle   2 NSaved=   2.
 NSaved= 2 IEnMin= 2 EnMin= -922.258923710144     IErMin= 2 ErrMin= 4.24D-03
 ErrMax= 4.24D-03  0.00D+00 EMaxC= 1.00D-01 BMatC= 2.34D-02 BMatP= 4.56D-01
 IDIUse=3 WtCom= 9.58D-01 WtEn= 4.24D-02
 Coeff-Com:  0.588D-01 0.941D+00
 Coeff-En:   0.117D+00 0.883D+00
 Coeff:      0.613D-01 0.939D+00
 Gap=     0.255 Goal=   None    Shift=    0.000
 RMSDP=1.23D-03 MaxDP=3.19D-02 DE=-2.13D-01 OVMax= 1.49D-01

 Cycle   3  Pass 1  IDiag  1:
 RMSU=  1.18D-03    CP:  9.59D-01  8.35D-01
 E= -922.515766670585     Delta-E=       -0.256842960441 Rises=F Damp=F
 DIIS: error= 4.18D-03 at cycle   3 NSaved=   3.
 NSaved= 3 IEnMin= 3 EnMin= -922.515766670585     IErMin= 3 ErrMin= 4.18D-03
 ErrMax= 4.18D-03  0.00D+00 EMaxC= 1.00D-01 BMatC= 1.72D-02 BMatP= 2.34D-02
 IDIUse=3 WtCom= 9.58D-01 WtEn= 4.18D-02
 Coeff-Com: -0.143D-01 0.454D+00 0.561D+00
 Coeff-En:   0.000D+00 0.000D+00 0.100D+01
 Coeff:     -0.137D-01 0.435D+00 0.579D+00
 Gap=     0.210 Goal=   None    Shift=    0.000
 RMSDP=5.09D-04 MaxDP=2.21D-02 DE=-2.57D-01 OVMax= 5.55D-02

 Cycle   4  Pass 1  IDiag  1:
 RMSU=  3.96D-04    CP:  9.60D-01  9.36D-01  7.70D-01
 E= -922.528240485007     Delta-E=       -0.012473814422 Rises=F Damp=F
 DIIS: error= 2.67D-03 at cycle   4 NSaved=   4.
 NSaved= 4 IEnMin= 4 EnMin= -922.528240485007     IErMin= 4 ErrMin= 2.67D-03
 ErrMax= 2.67D-03  0.00D+00 EMaxC= 1.00D-01 BMatC= 6.07D-03 BMatP= 1.72D-02
 IDIUse=3 WtCom= 9.73D-01 WtEn= 2.67D-02
 Coeff-Com: -0.208D-01 0.126D+00 0.386D+00 0.508D+00
 Coeff-En:   0.000D+00 0.000D+00 0.297D+00 0.703D+00
 Coeff:     -0.202D-01 0.123D+00 0.384D+00 0.513D+00
 Gap=     0.207 Goal=   None    Shift=    0.000
 RMSDP=2.19D-04 MaxDP=6.78D-03 DE=-1.25D-02 OVMax= 2.19D-02

 Cycle   5  Pass 1  IDiag  1:
 RMSU=  9.79D-05    CP:  9.60D-01  9.15D-01  8.01D-01  5.22D-01
 E= -922.535163348134     Delta-E=       -0.006922863126 Rises=F Damp=F
 DIIS: error= 2.38D-04 at cycle   5 NSaved=   5.
 NSaved= 5 IEnMin= 5 EnMin= -922.535163348134     IErMin= 5 ErrMin= 2.38D-04
 ErrMax= 2.38D-04  0.00D+00 EMaxC= 1.00D-01 BMatC= 7.16D-05 BMatP= 6.07D-03
 IDIUse=3 WtCom= 9.98D-01 WtEn= 2.38D-03
 Coeff-Com: -0.642D-02 0.125D-01 0.839D-01 0.167D+00 0.743D+00
 Coeff-En:   0.000D+00 0.000D+00 0.000D+00 0.000D+00 0.100D+01
 Coeff:     -0.640D-02 0.125D-01 0.837D-01 0.167D+00 0.743D+00
 Gap=     0.207 Goal=   None    Shift=    0.000
 RMSDP=3.10D-05 MaxDP=1.06D-03 DE=-6.92D-03 OVMax= 2.21D-03

 Cycle   6  Pass 1  IDiag  1:
 RMSU=  2.04D-05    CP:  9.59D-01  9.21D-01  7.99D-01  5.59D-01  8.53D-01
 E= -922.535225602419     Delta-E=       -0.000062254285 Rises=F Damp=F
 DIIS: error= 9.81D-05 at cycle   6 NSaved=   6.
 NSaved= 6 IEnMin= 6 EnMin= -922.535225602419     IErMin= 6 ErrMin= 9.81D-05
 ErrMax= 9.81D-05  0.00D+00 EMaxC= 1.00D-01 BMatC= 1.49D-05 BMatP= 7.16D-05
 IDIUse=1 WtCom= 1.00D+00 WtEn= 0.00D+00
 Coeff-Com: -0.300D-02 0.302D-02 0.337D-01 0.746D-01 0.419D+00 0.472D+00
 Coeff:     -0.300D-02 0.302D-02 0.337D-01 0.746D-01 0.419D+00 0.472D+00
 Gap=     0.207 Goal=   None    Shift=    0.000
 RMSDP=9.52D-06 MaxDP=3.38D-04 DE=-6.23D-05 OVMax= 4.88D-04

 Cycle   7  Pass 1  IDiag  1:
 RMSU=  5.52D-06    CP:  9.59D-01  9.20D-01  8.03D-01  5.59D-01  8.39D-01
                    CP:  6.91D-01
 E= -922.535239085205     Delta-E=       -0.000013482786 Rises=F Damp=F
 DIIS: error= 1.37D-05 at cycle   7 NSaved=   7.
 NSaved= 7 IEnMin= 7 EnMin= -922.535239085205     IErMin= 7 ErrMin= 1.37D-05
 ErrMax= 1.37D-05  0.00D+00 EMaxC= 1.00D-01 BMatC= 1.93D-07 BMatP= 1.49D-05
 IDIUse=1 WtCom= 1.00D+00 WtEn= 0.00D+00
 Coeff-Com: -0.453D-03-0.155D-03 0.496D-02 0.121D-01 0.839D-01 0.145D+00
 Coeff-Com:  0.755D+00
 Coeff:     -0.453D-03-0.155D-03 0.496D-02 0.121D-01 0.839D-01 0.145D+00
 Coeff:      0.755D+00
 Gap=     0.207 Goal=   None    Shift=    0.000
 RMSDP=1.41D-06 MaxDP=5.36D-05 DE=-1.35D-05 OVMax= 9.88D-05

 Cycle   8  Pass 1  IDiag  1:
 RMSU=  1.13D-06    CP:  9.59D-01  9.20D-01  8.03D-01  5.59D-01  8.46D-01
                    CP:  6.94D-01  9.10D-01
 E= -922.535239342660     Delta-E=       -0.000000257454 Rises=F Damp=F
 DIIS: error= 6.17D-06 at cycle   8 NSaved=   8.
 NSaved= 8 IEnMin= 8 EnMin= -922.535239342660     IErMin= 8 ErrMin= 6.17D-06
 ErrMax= 6.17D-06  0.00D+00 EMaxC= 1.00D-01 BMatC= 5.67D-08 BMatP= 1.93D-07
 IDIUse=1 WtCom= 1.00D+00 WtEn= 0.00D+00
 Coeff-Com: -0.677D-04-0.292D-03 0.691D-03 0.221D-02 0.215D-01 0.521D-01
 Coeff-Com:  0.425D+00 0.499D+00
 Coeff:     -0.677D-04-0.292D-03 0.691D-03 0.221D-02 0.215D-01 0.521D-01
 Coeff:      0.425D+00 0.499D+00
 Gap=     0.207 Goal=   None    Shift=    0.000
 RMSDP=5.49D-07 MaxDP=2.77D-05 DE=-2.57D-07 OVMax= 5.07D-05

 Cycle   9  Pass 1  IDiag  1:
 RMSU=  3.90D-07    CP:  9.59D-01  9.20D-01  8.03D-01  5.59D-01  8.46D-01
                    CP:  6.99D-01  9.45D-01  7.23D-01
 E= -922.535239355919     Delta-E=       -0.000000013260 Rises=F Damp=F
 DIIS: error= 1.96D-06 at cycle   9 NSaved=   9.
 NSaved= 9 IEnMin= 9 EnMin= -922.535239355919     IErMin= 9 ErrMin= 1.96D-06
 ErrMax= 1.96D-06  0.00D+00 EMaxC= 1.00D-01 BMatC= 6.61D-09 BMatP= 5.67D-08
 IDIUse=1 WtCom= 1.00D+00 WtEn= 0.00D+00
 Coeff-Com:  0.223D-04-0.991D-04-0.214D-03-0.325D-03 0.304D-03 0.671D-02
 Coeff-Com:  0.100D+00 0.217D+00 0.676D+00
 Coeff:      0.223D-04-0.991D-04-0.214D-03-0.325D-03 0.304D-03 0.671D-02
 Coeff:      0.100D+00 0.217D+00 0.676D+00
 Gap=     0.207 Goal=   None    Shift=    0.000
 RMSDP=1.77D-07 MaxDP=6.81D-06 DE=-1.33D-08 OVMax= 1.81D-05

 Cycle  10  Pass 1  IDiag  1:
 RMSU=  1.20D-07    CP:  9.59D-01  9.20D-01  8.03D-01  5.59D-01  8.45D-01
                    CP:  7.00D-01  9.52D-01  7.42D-01  7.18D-01
 E= -922.535239336041     Delta-E=        0.000000019878 Rises=F Damp=F
 DIIS: error= 1.96D-06 at cycle  10 NSaved=  10.
 NSaved=10 IEnMin= 9 EnMin= -922.535239355919     IErMin=10 ErrMin= 1.96D-06
 ErrMax= 1.96D-06  0.00D+00 EMaxC= 1.00D-01 BMatC= 4.20D-09 BMatP= 6.61D-09
 IDIUse=1 WtCom= 1.00D+00 WtEn= 0.00D+00
 Coeff-Com:  0.120D-04-0.232D-04-0.105D-03-0.236D-03-0.837D-03 0.229D-03
 Coeff-Com:  0.176D-01 0.515D-01 0.295D+00 0.637D+00
 Coeff:      0.120D-04-0.232D-04-0.105D-03-0.236D-03-0.837D-03 0.229D-03
 Coeff:      0.176D-01 0.515D-01 0.295D+00 0.637D+00
 Gap=     0.207 Goal=   None    Shift=    0.000
 RMSDP=6.11D-08 MaxDP=2.05D-06 DE= 1.99D-08 OVMax= 5.46D-06

 Cycle  11  Pass 1  IDiag  1:
 RMSU=  4.16D-08    CP:  9.59D-01  9.20D-01  8.03D-01  5.59D-01  8.45D-01
                    CP:  7.00D-01  9.52D-01  7.47D-01  7.84D-01  7.48D-01
 E= -922.535239342200     Delta-E=       -0.000000006159 Rises=F Damp=F
 DIIS: error= 1.96D-06 at cycle  11 NSaved=  11.
 NSaved=11 IEnMin= 9 EnMin= -922.535239355919     IErMin=10 ErrMin= 1.96D-06
 ErrMax= 1.96D-06  0.00D+00 EMaxC= 1.00D-01 BMatC= 4.02D-09 BMatP= 4.20D-09
 IDIUse=1 WtCom= 1.00D+00 WtEn= 0.00D+00
 Coeff-Com:  0.547D-05-0.289D-05-0.463D-04-0.130D-03-0.675D-03-0.856D-03
 Coeff-Com: -0.267D-02 0.128D-02 0.105D+00 0.404D+00 0.495D+00
 Coeff:      0.547D-05-0.289D-05-0.463D-04-0.130D-03-0.675D-03-0.856D-03
 Coeff:     -0.267D-02 0.128D-02 0.105D+00 0.404D+00 0.495D+00
 Gap=     0.207 Goal=   None    Shift=    0.000
 RMSDP=1.90D-08 MaxDP=9.06D-07 DE=-6.16D-09 OVMax= 2.07D-06

 Cycle  12  Pass 1  IDiag  1:
 RMSU=  1.26D-08    CP:  9.59D-01  9.20D-01  8.03D-01  5.59D-01  8.45D-01
                    CP:  7.00D-01  9.53D-01  7.50D-01  7.88D-01  7.91D-01
                    CP:  7.42D-01
 E= -922.535239342793     Delta-E=       -0.000000000593 Rises=F Damp=F
 DIIS: error= 1.96D-06 at cycle  12 NSaved=  12.
 NSaved=12 IEnMin= 9 EnMin= -922.535239355919     IErMin=10 ErrMin= 1.96D-06
 ErrMax= 1.96D-06  0.00D+00 EMaxC= 1.00D-01 BMatC= 3.96D-09 BMatP= 4.02D-09
 IDIUse=1 WtCom= 1.00D+00 WtEn= 0.00D+00
 Coeff-Com:  0.125D-05 0.782D-06-0.865D-05-0.327D-04-0.207D-03-0.369D-03
 Coeff-Com: -0.291D-02-0.561D-02 0.174D-01 0.115D+00 0.194D+00 0.684D+00
 Coeff:      0.125D-05 0.782D-06-0.865D-05-0.327D-04-0.207D-03-0.369D-03
 Coeff:     -0.291D-02-0.561D-02 0.174D-01 0.115D+00 0.194D+00 0.684D+00
 Gap=     0.207 Goal=   None    Shift=    0.000
 RMSDP=5.12D-09 MaxDP=1.36D-07 DE=-5.93D-10 OVMax= 3.55D-07

 Error on total polarization charges =  0.01605
 SCF Done:  E(RB3LYP) =  -922.535239343     A.U. after   12 cycles
            NFock= 12  Conv=0.51D-08     -V/T= 2.0047
 KE= 9.182525888235D+02 PE=-5.332064765464D+03 EE= 1.899263144664D+03
 Leave Link  502 at Mon Mar 25 14:23:59 2019, MaxMem=   268435456 cpu:            2761.2 elap:             348.8
 (Enter /home/apps/g16/g16/l601.exe)
 Copying SCF densities to generalized density rwf, IOpCl= 0 IROHF=0.

 **********************************************************************

            Population analysis using the SCF density.

 **********************************************************************

 Orbital symmetries:
       Occupied  (?A) (?A) (?A) (?A) (?A) (?A) (?A) (?A) (?A) (?A)
                 (?A) (?A) (?A) (?A) (?A) (?A) (?A) (?A) (?A) (?A)
                 (?A) (A) (E) (E) (A) (E) (E) (?A) (?A) (?A) (A)
                 (E) (E) (A) (E) (E) (A) (E) (E) (A) (E) (E) (?A)
                 (?A) (?A) (?A) (?A) (?A) (?A) (?A) (?A) (A) (E)
                 (E) (A) (E) (E) (E) (E) (A) (A) (E) (E) (A) (E)
                 (E) (A) (E) (E) (A) (E) (E) (A) (E) (E)
       Virtual   (A) (E) (E) (?A) (?A) (?A) (?A) (?A) (?A) (E)
                 (E) (A) (A) (E) (E) (A) (E) (E) (E) (E) (A) (A)
                 (E) (E) (A) (A) (E) (E) (A) (E) (E) (E) (E) (A)
                 (E) (E) (A) (A) (E) (E) (A) (E) (E) (A) (E) (E)
                 (A) (E) (E) (E) (E) (A) (E) (E) (A) (E) (E) (A)
                 (E) (E) (A) (E) (E) (A) (E) (E) (A) (E) (E) (A)
                 (?A) (?A) (?A) (A) (E) (E) (A) (E) (E) (E) (E)
                 (A) (A) (E) (E) (E) (E) (A) (A) (E) (E) (E) (E)
                 (A) (A) (E) (E) (A) (E) (E) (A) (E) (E) (A) (E)
                 (E) (A) (E) (E) (E) (E) (A) (E) (E) (A) (E) (E)
                 (A) (A) (E) (E) (E) (E) (A) (E) (E) (A) (E) (E)
                 (A) (A) (E) (E) (E) (E) (A) (A) (E) (E) (A) (E)
                 (E) (A) (?A) (?A) (?A) (E) (E) (E) (E) (E) (E)
                 (A) (E) (E) (A) (A) (E) (E) (A) (A) (E) (E) (E)
                 (E) (A) (E) (E) (A) (E) (E) (A) (E) (E) (A) (A)
                 (E) (E) (E) (E) (A) (E) (E) (A) (E) (E) (A) (E)
                 (E) (E) (E) (A) (E) (E) (A) (A) (E) (E) (E) (E)
                 (A) (E) (E) (A) (A) (E) (E) (E) (E) (A) (A) (E)
                 (E) (A) (?A) (?A) (?A) (E) (E) (A) (A) (E) (E)
                 (E) (E) (E) (E) (A) (?A) (?A) (?A) (A) (E) (E)
                 (A) (E) (E) (A) (E) (E) (E) (E) (A) (E) (E) (A)
                 (A) (E) (E) (A) (E) (E) (E) (E) (A) (E) (E) (A)
                 (?A) (?A) (?A) (A) (E) (E) (A) (E) (E) (E) (E)
                 (A) (A) (E) (E) (E) (E) (A) (A) (E) (E) (A) (E)
                 (E) (A) (E) (E) (?A) (?A) (?A) (E) (E) (A) (A)
                 (E) (E) (A) (E) (E) (A) (E) (E) (A) (E) (E) (A)
                 (E) (E) (A) (A) (E) (E) (A) (E) (E) (E) (E) (A)
                 (E) (E) (A) (E) (E) (A) (E) (E) (?A) (?A) (?A)
                 (A) (E) (E) (E) (E) (A) (?A) (?A) (?A) (?A) (?A)
                 (?A) (E) (E) (A) (E) (E) (A) (A) (E) (E) (?A)
                 (?A) (?A) (A) (E) (E) (E) (E) (A) (?A) (?A) (?A)
                 (E) (E) (A) (E) (E) (A) (E) (E) (A) (A) (E) (E)
                 (A) (E) (E) (A) (E) (E) (E) (E) (A) (A) (E) (E)
                 (A) (E) (E) (A) (E) (E) (A) (E) (E) (A) (E) (E)
                 (E) (E) (A) (E) (E) (A) (?A) (?A) (?A) (E) (E)
                 (A)
 Unable to determine electronic state:  an orbital has unidentified symmetry.
 Alpha  occ. eigenvalues --  -19.19101 -19.19100 -19.19096 -10.25607 -10.25606
 Alpha  occ. eigenvalues --  -10.25603 -10.19762 -10.19762 -10.19761 -10.19728
 Alpha  occ. eigenvalues --  -10.19727 -10.19726 -10.19293 -10.19291 -10.19289
 Alpha  occ. eigenvalues --  -10.19215 -10.19212 -10.19211 -10.18957 -10.18956
 Alpha  occ. eigenvalues --  -10.18955  -1.08279  -1.06911  -1.06908  -0.86168
 Alpha  occ. eigenvalues --   -0.85986  -0.85985  -0.75911  -0.75909  -0.75853
 Alpha  occ. eigenvalues --   -0.75199  -0.74731  -0.74730  -0.63676  -0.63378
 Alpha  occ. eigenvalues --   -0.63377  -0.61576  -0.61118  -0.61116  -0.55799
 Alpha  occ. eigenvalues --   -0.55284  -0.55283  -0.50832  -0.50830  -0.50791
 Alpha  occ. eigenvalues --   -0.47726  -0.47598  -0.47596  -0.44781  -0.44716
 Alpha  occ. eigenvalues --   -0.44714  -0.43895  -0.43590  -0.43589  -0.42616
 Alpha  occ. eigenvalues --   -0.42215  -0.42213  -0.40318  -0.40316  -0.39618
 Alpha  occ. eigenvalues --   -0.37186  -0.36960  -0.36959  -0.35390  -0.35224
 Alpha  occ. eigenvalues --   -0.35223  -0.34710  -0.34562  -0.34561  -0.26883
 Alpha  occ. eigenvalues --   -0.26367  -0.26366  -0.24315  -0.23770  -0.23769
 Alpha virt. eigenvalues --   -0.03089  -0.02092  -0.02091  -0.01001  -0.01000
 Alpha virt. eigenvalues --   -0.00978   0.01822   0.01822   0.01859   0.03633
 Alpha virt. eigenvalues --    0.03633   0.03922   0.03981   0.04971   0.04971
 Alpha virt. eigenvalues --    0.05312   0.05852   0.05852   0.07417   0.07418
 Alpha virt. eigenvalues --    0.07619   0.08225   0.08915   0.08915   0.09005
 Alpha virt. eigenvalues --    0.09901   0.10717   0.10717   0.11333   0.11414
 Alpha virt. eigenvalues --    0.11415   0.12638   0.12638   0.12982   0.13467
 Alpha virt. eigenvalues --    0.13467   0.13734   0.13845   0.14279   0.14280
 Alpha virt. eigenvalues --    0.14529   0.15218   0.15219   0.16453   0.16521
 Alpha virt. eigenvalues --    0.16521   0.17140   0.17671   0.17671   0.18442
 Alpha virt. eigenvalues --    0.18443   0.18747   0.19543   0.19543   0.20485
 Alpha virt. eigenvalues --    0.20541   0.20542   0.20830   0.21658   0.21659
 Alpha virt. eigenvalues --    0.22191   0.23055   0.23055   0.23317   0.24596
 Alpha virt. eigenvalues --    0.24597   0.25291   0.25612   0.25613   0.25796
 Alpha virt. eigenvalues --    0.26400   0.26400   0.26423   0.26983   0.27281
 Alpha virt. eigenvalues --    0.27281   0.27814   0.28802   0.28802   0.29727
 Alpha virt. eigenvalues --    0.29728   0.29914   0.30509   0.30752   0.30753
[...]
 52,-0.00040732,0.00011455,-0.00038535,0.00092573,-0.00039273,0.0019176
 2,-0.00032978,0.00004545,-0.00035308,-0.00000459,0.00000261,-0.0000251
 7,0.00000450,-0.00000027,-0.00001389,-0.00004804,0.00002983,-0.0000936
 8,0.00008968,0.00000420,-0.00002088,-0.00030894,-0.00018650,0.00008837
 ,-0.00236662,0.00364172,-0.00162959,0.00074943,-0.00585061,0.00128878,
 0.00008284,0.00025720,0.00019458,0.00015202,-0.00035166,-0.00060712,-0
 .00009799,0.00047844,0.00017786,-0.00032926,-0.00051987,-0.00190899,-0
 .00175799,0.00519757,0.00851620,0.00095810,-0.00065157,-0.00090023,0.0
 0006501,-0.00011912,-0.00005676,-0.00002113,-0.00009879,-0.00005161,-0
 .00005601,-0.00007169,-0.00015281,-0.00014919,0.00004827,0.00013238,-0
 .03288225,-0.12438967,0.06135715,0.00853958,0.01435995,-0.01901776,-0.
 00175242,-0.00739270,0.00042234,-0.00120184,0.00461160,0.00440575,0.00
 252983,-0.00643911,-0.00922123,-0.02639096,-0.02261052,0.05392810,0.00
 055962,0.00205944,0.00034410,0.00028181,0.00042738,-0.00063239,-0.0000
 0772,0.00034366,0.00027437,-0.00081338,-0.00088367,0.00182651,0.000657
 04,0.00222610,-0.00003787,0.07547199,0.60966191,0.00000467,0.00011533,
 -0.00025638,0.00009481,-0.00007650,0.00037699,0.00001847,0.00009182,-0
 .00009778,0.00018654,-0.00048468,0.00103641,-0.00120993,0.00110839,-0.
 00391913,0.00061360,-0.00013855,0.00091519,0.00005211,-0.00000625,0.00
 007051,0.00003429,-0.00001487,0.00003546,0.00009283,-0.00010396,0.0001
 7071,-0.00011874,-0.00003673,-0.00003223,0.00064830,0.00042609,-0.0003
 9680,0.00520489,-0.00047024,0.00545573,-0.00727180,0.00133442,-0.00462
 859,-0.00005558,-0.00010565,0.00001522,-0.00013605,0.00020242,0.000386
 07,0.00006281,-0.00024883,0.00001082,0.00023814,0.00026589,0.00112654,
 0.00138573,-0.00203558,-0.00398780,-0.00077494,0.00042151,0.00034612,-
 0.00002903,0.00009812,0.00001254,0.00003027,0.00008720,0.00003647,0.00
 007971,0.00006523,0.00008131,0.00013117,-0.00005883,-0.00010499,0.0846
 7866,0.02245771,-0.22448827,0.02499788,0.01535268,-0.04373973,0.000974
 13,-0.00776506,0.00378006,0.00147914,0.00413654,-0.00374494,0.00115578
 ,-0.00253229,0.00131568,0.00881041,0.01606096,-0.01060641,-0.00244564,
 0.00102873,0.00232065,0.00065559,0.00063439,-0.00169332,-0.00021053,0.
 00027711,-0.00025394,0.00017684,0.00031381,-0.00024886,-0.00172530,-0.
 00020551,0.00058134,-0.13253457,-0.05841163,0.31782688,-0.00005808,0.0
 0005553,-0.00015051,0.00006599,-0.00004080,0.00016370,-0.00010980,-0.0
 0003590,-0.00005556,0.00026708,-0.00012933,0.00036518,-0.00131994,0.00
 043861,-0.00229979,0.00036227,-0.00005793,0.00036859,0.00003266,0.0000
 0951,0.00003154,0.00000815,-0.00000367,0.00002713,0.00001445,-0.000021
 76,0.00007220,-0.00006352,0.00000753,0.00000006,0.00010889,0.00004458,
 0.00002515,0.00175023,-0.00241744,0.00140782,-0.00131820,0.00574937,0.
 00008205,-0.00021713,-0.00011773,-0.00012600,-0.00013933,0.00039616,0.
 00052203,0.00007614,-0.00035048,-0.00028464,0.00035814,0.00055890,0.00
 164555,0.00207907,-0.00473558,-0.00782465,-0.00063983,0.00083426,0.001
 25125,-0.00006580,0.00012002,0.00008395,-0.00001584,0.00006259,0.00003
 325,0.00003105,0.00003944,0.00012910,-0.00001394,0.00021588,-0.0002125
 1,-0.00626372,-0.02019996,0.00293386,0.00005001,-0.00038575,-0.0013753
 0,-0.00058407,-0.00009345,-0.00001230,0.00021105,0.00022388,-0.0003264
 5,0.00130308,-0.00079690,0.00043160,0.00084231,0.00032955,0.00251286,0
 .00044644,0.00084906,0.00053135,0.00006679,0.00003015,-0.00015181,-0.0
 0004606,0.00008368,-0.00005686,-0.00018933,0.00001600,0.00006305,-0.00
 048371,-0.00001802,-0.00021072,-0.01956049,-0.01550381,0.01444634,0.02
 880727,-0.00012211,-0.00008428,-0.00009333,-0.00009458,-0.00004204,-0.
 00005094,-0.00001215,-0.00004014,0.00012590,0.00031470,0.00021446,-0.0
 0017995,0.00012239,-0.00023690,0.00065969,-0.00003042,-0.00007849,-0.0
 0025052,-0.00004198,0.00001887,-0.00001271,-0.00003155,0.00000781,-0.0
 0000101,0.00001387,0.00000274,0.00002354,-0.00007105,0.00004456,0.0000
 5800,0.00002160,-0.00013798,0.00009163,-0.00195336,-0.00164758,-0.0004
 4174,0.00513066,-0.00091011,-0.00020716,0.00002768,-0.00022880,-0.0003
 7825,-0.00011582,0.00047975,0.00087871,0.00016800,-0.00054127,-0.00014
 200,0.00035073,0.00099460,0.00251669,0.00140010,-0.00839597,-0.0111453
 0,-0.00112927,0.00108390,0.00117957,-0.00012743,0.00016948,0.00009737,
 0.00001416,0.00010199,0.00009933,0.00008139,0.00009531,0.00022993,0.00
 013088,-0.00017398,-0.00016361,-0.00486174,-0.01270891,0.00885163,0.00
 269207,0.00387646,-0.00456354,-0.00013919,-0.00138564,-0.00005539,0.00
 037705,0.00055993,-0.00083004,-0.00026572,-0.00025504,-0.00003942,0.00
 047969,0.00319610,-0.00101706,-0.00002813,0.00027434,-0.00008472,0.000
 17537,0.00009520,-0.00038997,0.00005394,0.00000995,-0.00002849,0.00007
 052,0.00016721,-0.00004832,0.00010468,0.00010559,0.00004061,-0.0342298
 4,-0.45603681,0.00343449,0.02740241,0.46075881,0.00003358,-0.00000373,
 0.00003669,0.00005639,0.00002840,0.00000284,-0.00000152,0.00000040,-0.
 00011546,-0.00004025,-0.00014981,0.00002457,-0.00025008,0.00017237,-0.
 00013904,-0.00000600,-0.00002337,0.00001788,0.00001939,0.00000699,0.00
 000676,0.00001520,0.00000804,0.00001510,-0.00001422,0.00000031,0.00000
 642,0.00001728,0.00001921,-0.00000783,0.00003338,0.00011683,-0.0000312
 3,0.00071298,0.00001116,-0.00047852,-0.00110058,-0.00015102,0.00128694
 ,-0.00000697,0.00006473,-0.00017105,0.00002786,-0.00002517,0.00002251,
 0.00001603,0.00013444,-0.00017320,0.00009411,-0.00022338,-0.00036758,-
 0.00234576,-0.00258926,-0.00077617,0.00020248,-0.00003674,0.00010247,-
 0.00003286,0.00001170,0.00001640,-0.00002365,-0.00000719,0.00002657,0.
 00001163,-0.00002669,-0.00000429,-0.00011489,-0.00002230,0.00004375,0.
 00312507,0.04154900,-0.00378463,-0.00056349,0.00155173,0.00159508,0.00
 004055,0.00032526,-0.00048935,-0.00008924,-0.00066403,0.00000559,0.000
 43809,0.00124915,0.00132498,0.00308553,0.00046664,-0.00524879,0.000354
 25,-0.00160149,-0.00107679,-0.00007680,-0.00002155,0.00022100,-0.00007
 207,-0.00016375,0.00003289,0.00006954,0.00006539,-0.00035392,-0.000250
 43,0.00008820,-0.00004453,0.01366199,-0.03688399,-0.04239751,-0.019064
 48,-0.00439726,0.05421809,-0.00023784,0.00015217,-0.00054530,-0.000257
 38,-0.00022053,-0.00002752,0.00028333,-0.00002098,0.00040615,-0.000364
 01,0.00024112,0.00004031,0.00077118,0.00100703,0.00112826,-0.00024005,
 0.00016356,0.00046799,-0.00001902,-0.00000415,-0.00000523,-0.00001288,
 -0.00001232,0.00000324,-0.00000086,-0.00001361,-0.00001859,-0.00005822
 ,0.00005724,0.00008047,-0.00007983,-0.00006362,-0.00000814,-0.00064694
 ,0.00042072,-0.00065717,0.00002962,-0.00011716,-0.00014698,0.00000234,
 -0.00097054,-0.00054752,0.00368182,0.00215538,-0.00089418,0.00138635,0
 .00054715,-0.00034268,-0.22155256,0.14551648,0.01379366,-0.01127533,0.
 01380841,0.00502339,0.00027067,0.00155995,-0.00445509,-0.00026178,-0.0
 0031473,0.00022438,0.00010211,0.00011588,-0.00022302,-0.00078952,-0.00
 197922,0.00113599,-0.00059452,0.00058941,0.00023943,-0.00004238,-0.000
 04279,0.00005009,0.00013655,-0.00004357,-0.00005259,0.00000717,-0.0000
 2388,0.00007273,0.00000131,0.00002537,-0.00000206,0.00000495,0.0000143
 7,-0.00002339,-0.00000411,0.00000809,0.00000061,-0.00011357,0.00005673
 ,-0.00005439,-0.00000680,-0.00001220,-0.00002352,0.00000501,0.00001784
 ,-0.00001738,0.00000407,0.00002279,-0.00000228,-0.00000979,0.00001741,
 0.00002081,0.00012307,0.00012075,0.00006337,-0.00013670,-0.00006469,-0
 .00009572,0.22970846,0.00012930,-0.00016466,0.00022471,0.00010568,0.00
 008592,-0.00013555,-0.00012928,0.00002282,0.00002955,-0.00003150,-0.00
 019431,0.00018516,0.00012645,-0.00190882,-0.00146788,0.00064896,-0.000
 33233,-0.00028791,-0.00009519,0.00003585,-0.00001601,-0.00003060,0.000
 02722,-0.00002018,-0.00000311,0.00002624,-0.00002497,-0.00011041,0.000
 03842,0.00013375,-0.00005365,-0.00002544,-0.00001902,0.00046869,-0.000
 42176,0.00034533,-0.00014558,0.00000996,-0.00000614,-0.00071922,-0.000
 38798,0.00005679,0.00189005,0.00336033,-0.00439436,0.01165119,-0.00600
 558,0.00029443,0.14683177,-0.15350786,-0.02339568,0.00168195,0.0014908
 1,-0.00234954,0.00153635,0.00374666,-0.00116048,-0.00029257,-0.0004764
 4,0.00025991,0.00069795,-0.00014210,-0.00004667,-0.00202183,-0.0019179
 0,0.00135017,-0.00005107,0.00008168,-0.00005587,0.00001170,-0.00002690
 ,-0.00007471,0.00005789,0.00003611,0.00003681,0.00000149,0.00000554,0.
 00002507,-0.00000565,0.00000702,0.00000951,0.00001474,-0.00000507,0.00
 000037,0.00001839,-0.00002077,0.00001417,0.00006474,-0.00003300,0.0000
 1642,-0.00000312,-0.00000011,0.00000193,-0.00000309,-0.00000328,-0.000
 00311,-0.00000483,-0.00000075,-0.00000136,-0.00000942,-0.00000276,-0.0
 0000963,-0.00000418,-0.00014935,0.00005847,0.00007706,0.00017655,-0.00
 008104,-0.16012948,0.15721128,0.00002878,-0.00012842,0.00034992,0.0001
 6196,0.00014722,-0.00031517,-0.00015240,0.00005629,-0.00025157,0.00010
 053,-0.00013227,0.00007275,0.00041701,-0.00101037,0.00034684,-0.000071
 61,0.00001393,-0.00017949,-0.00001499,0.00000939,-0.00000098,-0.000000
 48,0.00001889,-0.00000688,-0.00000617,0.00001197,-0.00000032,0.0001511
 7,-0.00008235,-0.00012127,0.00000741,0.00002946,-0.00000930,-0.0001197
 9,0.00008595,-0.00040237,-0.00011454,-0.00002988,-0.00002691,-0.000088
 27,-0.00009976,-0.00120910,-0.00149060,-0.00416801,-0.00321018,0.02205
 870,-0.01650211,0.00197767,0.01442732,-0.02287315,-0.05784126,-0.01871
 862,0.01434219,0.00542334,-0.00405326,-0.00133535,-0.00268144,0.000228
 70,0.00027958,0.00000279,0.00101057,-0.00088587,-0.00001949,0.00086665
 ,0.00155290,0.00006918,-0.00094388,0.00075434,0.00023970,-0.00007237,-
 0.00004763,0.00015923,-0.00003898,0.00000257,-0.00002369,0.00000080,-0
 .00000777,-0.00001978,0.00000097,-0.00000028,-0.00001228,-0.00000680,-
 0.00000550,0.00001705,0.00001464,0.00001527,-0.00002769,0.00002483,0.0
 0000924,-0.00000549,0.00000616,0.00000547,0.00000767,-0.00000077,-0.00
 000502,0.00000847,-0.00000015,-0.00001004,-0.00000038,0.00000249,-0.00
 001498,-0.00001207,0.00015086,0.00011155,-0.00012251,-0.00010477,-0.00
 008924,0.00003816,-0.01496105,0.02832454,0.05662902,0.00018213,-0.0000
 4760,0.00015512,-0.00020311,0.00001967,-0.00033052,0.00031251,-0.00008
 138,0.00007967,-0.00037125,0.00029113,-0.00108248,0.00317727,-0.000713
 25,0.00482606,-0.00073297,-0.00022305,-0.00031279,-0.00006036,-0.00001
 198,-0.00003241,-0.00003300,0.00003341,-0.00003477,-0.00002484,0.00005
 268,-0.00010428,0.00015689,0.00001127,0.00002389,-0.00011405,0.0000565
 9,0.00003400,-0.00363909,0.01038154,-0.00214752,-0.00275365,-0.0001286
 6,-0.00032593,-0.00477611,0.00312382,-0.00798335,0.00393984,-0.0023042
 4,0.00266972,-0.00382272,0.00802243,-0.00037358,0.00918575,-0.01514520
 ,-0.02742724,-0.09390858,0.04001305,0.01064607,-0.00076925,0.02656865,
 0.03977175,-0.00018507,0.00088320,0.00141296,0.00007160,-0.00051837,0.
 00033316,0.00020712,-0.00061861,-0.00093205,0.00053176,-0.00243036,0.0
 0090540,0.00157274,0.00023276,-0.00336811,-0.00001177,0.00086185,0.000
 50665,0.00009316,0.00003138,-0.00018375,-0.00009087,-0.00007545,0.0002
 1316,0.00005996,-0.00018506,-0.00010423,-0.00029889,-0.00034586,0.0008
 3192,-0.00009851,-0.00017581,0.00002799,-0.00001587,0.00000984,0.00004
 012,-0.00002982,-0.00003497,0.00002126,-0.00004768,-0.00006484,0.00006
 201,-0.00001964,0.00005249,-0.00004452,-0.00182624,-0.00920515,0.00123
 834,0.00007357,0.00679212,0.00230502,0.00078644,-0.00249045,0.00141127
 ,0.41869664,-0.00006839,0.00028685,-0.00014296,0.00040876,-0.00004672,
 0.00060526,-0.00036525,0.00017954,-0.00021658,0.00008138,-0.00057757,0
 .00177457,-0.00544295,0.00092138,-0.00866557,0.00111690,0.00050182,0.0
 0103555,0.00015596,-0.00002694,0.00006831,0.00009155,-0.00006320,0.000
 04139,0.00002176,-0.00008056,0.00012119,-0.00001112,-0.00015787,-0.000
 15496,0.00011824,0.00007287,-0.00020183,0.01257817,-0.01430803,0.00473
 427,-0.00053983,0.00279153,0.00055833,0.00540522,0.00332613,0.00462653
 ,-0.00234545,-0.00146093,-0.00417752,0.00446512,0.00344224,-0.00151219
 ,-0.00005590,0.00274528,-0.00932322,0.01997618,-0.11155150,-0.10425671
 ,0.01137087,-0.02205122,-0.03876652,0.00039715,-0.00075732,-0.00122001
 ,-0.00049358,-0.00055726,0.00001507,-0.00012585,-0.00016136,-0.0003512
 3,-0.00233386,-0.00080251,0.00155369,0.00431051,0.00167694,-0.00974635
 ,-0.00064487,0.00082904,0.00159575,0.00015817,0.00006804,-0.00026199,-
 0.00027060,-0.00010264,0.00068351,0.00028789,-0.00020558,-0.00054365,-
 0.00092215,-0.00111397,0.00222238,-0.00018886,-0.00097497,-0.00020008,
 -0.00014038,-0.00002581,0.00026222,-0.00005745,-0.00003381,0.00007846,
 -0.00009352,-0.00012542,0.00016070,0.00003949,0.00025076,-0.00004578,-
 0.01146372,-0.01637766,0.00571737,0.01058444,0.00701467,0.00123161,-0.
 00216956,-0.00120137,0.00232593,-0.25456690,0.29892836,-0.00006777,0.0
 0010117,0.00001439,0.00023759,0.00001207,0.00038504,-0.00025964,0.0000
 6993,-0.00000939,0.00009569,-0.00029803,0.00112647,-0.00237947,-0.0002
 0966,-0.00389611,0.00070592,0.00045799,0.00036368,0.00008746,-0.000029
 25,0.00001088,0.00005361,-0.00006876,0.00002407,0.00002873,-0.00008943
 ,0.00006532,-0.00012180,-0.00009508,-0.00009221,0.00008466,-0.00006131
 ,-0.00011418,0.00415899,-0.00389565,0.00538341,-0.00031008,0.00145114,
 -0.00046369,-0.00276208,0.00026570,0.00131122,0.00284199,-0.00335405,-
 0.00375470,-0.00721474,0.00303960,0.00376612,0.00073295,-0.02936135,-0
 .04386713,-0.02285855,-0.08462973,-0.22434482,0.00954980,-0.01561042,-
 0.01055440,0.00019827,-0.00032172,-0.00024977,0.00034884,0.00003405,-0
 .00026700,0.00020961,-0.00088099,-0.00170845,0.00071373,0.00158760,0.0
 0061731,0.00149415,0.00042636,-0.00382096,-0.00046323,0.00010052,0.001
 04662,0.00007465,-0.00005553,-0.00011716,-0.00011224,-0.00003620,0.000
 36873,0.00009848,-0.00005229,-0.00025939,-0.00042648,-0.00042994,0.000
 90642,0.00003913,-0.00085144,-0.00034833,-0.00012913,-0.00004731,0.000
 15192,-0.00002225,-0.00001799,0.00001872,-0.00002912,-0.00002376,0.000
 06891,0.00002035,0.00013684,-0.00001137,-0.00304125,-0.00412778,0.0053
 1816,0.00473389,0.00543236,-0.00470038,0.00213198,0.00163879,0.0022754
 4,0.01578132,0.14390972,0.31779300,-0.00019891,-0.00005637,-0.00028978
 ,0.00020686,-0.00007295,0.00047426,-0.00029599,0.00006216,0.00001340,0
 .00048944,-0.00037193,0.00130543,-0.00440136,0.00243304,-0.00574120,0.
 00103069,0.00019147,0.00024098,0.00008586,0.00001264,0.00004590,0.0000
 3050,-0.00003863,0.00005547,0.00003210,-0.00007252,0.00012230,-0.00032
 861,-0.00000201,0.00005162,0.00008783,-0.00008862,-0.00003608,-0.00226
 518,-0.00553161,0.00238139,0.00373312,-0.00284798,0.00065803,0.0005993
 2,0.00066181,-0.00024999,0.00022301,-0.00038132,-0.00055959,-0.0010716
 4,0.00041009,-0.00006327,0.00236331,-0.00366633,-0.00321106,-0.0002791
 3,0.00149403,0.00626172,0.00227864,-0.00134452,-0.00214186,0.00005407,
 -0.00021161,-0.00007993,-0.00006744,-0.00004820,-0.00001518,-0.0000276
 9,-0.00013503,-0.00027852,-0.00007426,-0.00033276,0.00014468,-0.000740
 27,-0.00043253,0.00172534,0.00014633,-0.00027922,-0.00034938,-0.000035
 09,-0.00003346,0.00013686,0.00004661,0.00010321,-0.00012404,-0.0000523
 1,0.00011574,-0.00000812,0.00007227,0.00020760,-0.00038094,-0.00011738
 ,0.00009964,0.00003249,0.00000738,-0.00001622,-0.00002389,0.00002345,0
 .00003368,-0.00001894,0.00003717,0.00004810,-0.00002685,0.00003876,0.0
 0001670,0.00005695,0.00111516,0.00231507,-0.00105166,-0.00573017,-0.00
 257854,-0.00017217,-0.00060483,0.00032996,-0.00011203,-0.32520470,0.21
 072474,-0.00424477,0.32878809,0.00010784,-0.00025184,0.00032020,-0.000
 60137,0.00012775,-0.00087112,0.00055597,-0.00016653,0.00031590,-0.0006
 7126,0.00090740,-0.00262521,0.00849414,-0.00206696,0.01238724,-0.00160
 200,-0.00039738,-0.00162842,-0.00020031,-0.00000058,-0.00012366,-0.000
 08709,0.00004154,-0.00006740,-0.00003828,0.00009659,-0.00021983,-0.000
 02639,0.00013627,0.00019170,-0.00017538,-0.00002221,0.00015070,-0.0093
 6741,0.00930997,-0.00686562,-0.00224202,-0.00592265,-0.00086883,0.0012
 0614,0.00046197,-0.00035474,-0.00023315,0.00056201,0.00070134,0.000373
 29,-0.00087465,0.00005084,-0.00067101,0.00217389,0.00356711,0.01677004
 ,-0.01884902,-0.00698018,-0.00116004,0.00182633,-0.00166045,-0.0001603
 5,-0.00005496,-0.00002587,-0.00007115,0.00003163,0.00007815,0.00002917
 ,0.00016129,0.00033942,-0.00022291,-0.00030301,0.00015586,-0.00080961,
 -0.00083915,0.00167711,0.00020859,0.00034817,-0.00022826,-0.00000509,-
 0.00010712,-0.00002432,0.00005194,-0.00001386,-0.00011978,-0.00005744,
 -0.00008842,0.00017796,0.00022754,0.00022217,-0.00021806,0.00008345,0.
 00005273,-0.00002571,0.00002692,0.00000913,-0.00007082,-0.00000433,-0.
 00001504,-0.00002165,-0.00001207,0.00001087,-0.00002116,-0.00006574,-0
 .00006872,-0.00003082,0.00278087,-0.00100828,-0.00102271,-0.00321647,0
 .00346672,-0.00003597,-0.00042891,0.00057369,-0.00067259,0.19195394,-0
 .15027858,-0.01409385,-0.20074144,0.16082389,0.00005531,-0.00003065,-0
 .00017847,-0.00003407,-0.00000648,0.00001353,0.00011570,-0.00007753,-0
 .00017600,-0.00021167,0.00002470,-0.00040783,-0.00114197,0.00337523,-0
 .00074467,-0.00006723,-0.00023378,0.00008831,0.00001229,0.00001658,0.0
 0001559,-0.00000037,0.00002626,0.00001688,-0.00002524,0.00000833,-0.00
 001174,0.00002415,0.00009004,0.00007255,-0.00002386,0.00012227,0.00003
 789,-0.00017002,-0.00260445,-0.00470759,0.00013001,0.00017955,0.001314
 97,0.00086604,-0.00100776,0.00132138,-0.00052747,0.00040704,0.00000081
 ,0.00026315,-0.00020348,-0.00049786,0.00178540,-0.00022620,0.00169998,
 0.03438819,-0.02342398,-0.00377522,-0.00112232,-0.00292216,-0.00525665
 ,0.00003263,-0.00010096,-0.00035497,-0.00010502,0.00013877,0.00002220,
 0.00000712,0.00007959,0.00021010,0.00021514,0.00017133,-0.00002802,0.0
 0028559,0.00013564,-0.00012720,-0.00010671,0.00012027,0.00001511,0.000
 00155,-0.00000089,-0.00011414,-0.00000315,-0.00006411,0.00000052,-0.00
 002061,-0.00002721,0.00003553,-0.00001752,0.00001584,0.00001853,0.0000
 7858,-0.00009531,-0.00003707,0.00000875,0.00000675,0.00000007,0.000001
 94,-0.00001365,0.00000904,-0.00000260,-0.00001167,0.00000603,0.0000041
 1,-0.00001628,0.00000272,-0.00031189,-0.00058212,-0.00053620,0.0004127
 0,0.00100375,0.00131650,-0.00175335,0.00051003,-0.00111655,-0.03860979
 ,0.00652910,-0.04247291,0.00556156,0.01869145,0.05432575\\0.00010760,0
 .00004538,-0.00001518,0.00005216,-0.00000605,0.00008431,-0.00010392,-0
 .00004990,0.00005504,-0.00007899,-0.00001602,-0.00009718,0.00015861,0.
 00007220,0.00030757,-0.00010142,-0.00004979,-0.00018525,0.00000516,0.0
 0001952,-0.00001653,-0.00000329,0.00000102,0.00001129,-0.00001222,-0.0
 0001340,0.00002114,0.00004779,0.00008522,0.00003550,-0.00001940,0.0000
 0331,-0.00002525,-0.00006250,0.00005737,-0.00016056,-0.00024304,-0.000
 04054,0.00001319,-0.00009178,0.00006385,-0.00001868,-0.00001886,0.0000
 4647,0.00008006,0.00009024,-0.00006606,0.00005185,0.00005062,-0.000013
 20,-0.00011258,-0.00011626,0.00007628,0.00031727,0.00008745,-0.0000245
 5,-0.00020023,-0.00002238,-0.00000267,-0.00001632,-0.00000213,-0.00000
 435,0.00001178,0.00001804,-0.00000368,0.00001926,-0.00010617,-0.000000
 49,0.00003123,-0.00002651,-0.00018548,0.00031128,0.00001718,0.00006357
 ,-0.00011456,0.00000302,0.00010776,0.00005532,-0.00001891,-0.00002802,
 0.00008865,-0.00002087,-0.00011496,-0.00001458,0.00000532,0.00010871,-
 0.00020828,0.00001097,-0.00000266,0.00002223,-0.00000565,0.00001996,0.
 00002275,0.00000445,-0.00000567,0.00000919,0.00001515,-0.00001648,-0.0
 0001848,0.00005415,-0.00008924,0.00003335,0.00007520,0.00004582,-0.000
 17515,0.00008566,0.00019817,-0.00002019,0.00004085,-0.00001171,-0.0000
 3742,-0.00003459,-0.00006434,-0.00015608,0.00015926,-0.00020535,0.0000
 1023\\\@


 Sacred cows make the best hamburger.
                               -- Mark Twain
 Job cpu time:       0 days 13 hours 36 minutes 25.1 seconds.
 Elapsed time:       0 days  1 hours 42 minutes 11.3 seconds.
 File lengths (MBytes):  RWF=    583 Int=      0 D2E=      0 Chk=     35 Scr=      1
 Normal termination of Gaussian 16 at Mon Mar 25 17:32:05 2019.
