 Entering Gaussian System, Link 0=g16
 Input=trimero_ciclo_b3lypd3_n07d_ccl4_of.com
 Output=trimero_ciclo_b3lypd3_n07d_ccl4_of.log
 AtFile(1): N07D_B3LYP.gbs
             -H 0
             6-31G
             P   1 1.00       0.000000000000
                  0.7500000000D+00  0.10000000D+01
             ****
             -He 0
             6-31G**
             ****
             -Li 0
             6-31+G**
             ****
             -Be 0
             6-31+G**
             ****
             -B 0
             6-31G
             P   1 1.00       0.000000000000
                  0.3500000000D-01  0.1000000000D+01
             D   1 1.00       0.000000000000
                  0.3430000000D+00  0.1000000000D+01
             ****
             -C 0
             6-31G
             S   1 1.00       0.000000000000
                  0.7500000000D+01  0.1000000000D+01
             P   1 1.00       0.000000000000
                  0.5000000000D-01  0.1000000000D+01
             D   1 1.00       0.000000000000
                  0.8200000000D+00  0.1000000000D+01
             ****
             -N 0
             6-31G
             S   1 1.00       0.000000000000
                  0.1260000000D+02  0.1000000000D+01
             P   1 1.00       0.000000000000
                  0.5300000000D-01  0.1000000000D+01
             D   1 1.00       0.000000000000
                  0.1015000000D+01  0.1000000000D+01
             ****
             -O 0
             6-31G
             S   1 1.00
                  0.1510000000D+02  0.1000000000D+01
             P   1 1.00       0.000000000000
                  0.6500000000D-01  0.1000000000D+01
             D   1 1.00        0.000000000000
                  0.1190000000D+01  0.1000000000D+01
             D   1 1.00        0.000000000000
                  0.1800000000D+00  0.1000000000D+01
             ****
             -F 0
             6-31G
             S   1 1.00
                  0.1830000000D+02  0.1000000000D+01
             P   1 1.00       0.000000000000
                  0.8300000000D-01  0.1000000000D+01
             D   1 1.00       0.000000000000
                  1.3700000000D+00  0.1000000000D+01
             D   1 1.00       0.000000000000
                  0.2300000000D+00  0.1000000000D+01
             ****
             -Ne 0
             6-31+G**
             ****
             -Na 0
             6-31+G**
             ****
             -Mg 0
             6-31+G**
             ****
             -Al 0
             6-31G
             S   1 1.00      0.000000000000
                  0.3100000000D+01  0.1000000000D+01
             P   1 1.00      0.000000000000
                  0.1500000000D-01  0.1000000000D+01
             D   1 1.00      0.000000000000
                  0.1890000000D+00  0.1000000000D+01
             ****
             -Si 0
             6-31G
             S   1 1.0
                  0.3600000000D+01  0.1000000000D+01
             P   1 1.00       0.000000000000
                  0.3300000000D-01  0.1000000000D+01
             D   1 1.0        0.000000000000
                  0.2750000000D+00  0.1000000000D+01
             ****
             -P  0
             6-31G
             S   1 1.00       0.000000000000
                  0.5500000000D+01  0.1000000000D+01
             P   1 1.00       0.000000000000
                  0.3500000000D-01  0.1000000000D+01
             D   1 1.00       0.000000000000
                  0.3730000000D+00  0.1000000000D+01
             ****
             -S  0
             6-31G
             S   1 1.00       0.000000000000
                  0.8000000000D+01  0.1000000000D+01
             P   1 1.00        0.000000000000
                  0.4100000000D-01  0.1000000000D+01
             D   1 1.00        0.000000000000
                  0.4790000000D+00  0.1000000000D+01
             ****
            -Cl 0
             6-31G
             S   1 1.00      0.000000000000
                  0.8500000000D+01  0.1000000000D+01
             P   1 1.00      0.000000000000
                  0.4800000000D-01  0.1000000000D+01
             D   1 1.00      0.000000000000
                  0.6000000000D+00  0.1000000000D+01
             D   1 1.00       0.000000000000
                  0.1960000000D+00  0.1000000000D+01
             ****
            -Br 0
             S   3 1.00       0.000000000000
                  0.4721881000D+01  0.1749732514D+00
                  0.2257555000D+01 -0.7074172290D+00
                  0.3896080000D+00  0.1258999543D+01
             S   1 1.00       0.000000000000
                  0.1471340000D+00  0.1000000000D+01
             P   3 1.00       0.000000000000
                  0.1896942000D+01 -0.2464576731D+00
                  0.9108990000D+00  0.3623179892D+00
                  0.3168550000D+00  0.8338469725D+00
             P   1 1.00       0.000000000000
                  0.1095030000D+00  0.1000000000D+01
             P   1 1.00       0.000000000000
                  0.3609700000D-01  0.1000000000D+01
             D   1 1.00
                  0.4750000000D+00  0.1000000000D+01
             D   1 1.00
                  0.1280000000D+00  0.1000000000D+01
             ****
            -I   0
             S   3 1.00       0.000000000000
                  0.2122765000D+01  0.2063429899D+01
                  0.1770481000D+01 -0.2869526473D+01
                  0.3130840000D+00  0.1404747074D+01
             S   1 1.00       0.000000000000
                  0.1320000000D+00  0.1000000000D+01
             P   3 1.00       0.000000000000
                  0.2432887000D+01  0.7732753148D+00
                  0.2137249000D+01 -0.1020833156D+01
                  0.3145460000D+00  0.1095666871D+01
             P   1 1.00       0.000000000000
                  0.1049450000D+00  0.1000000000D+01
             P   1 1.00       0.000000000000
                  0.3264100000D-01  0.1000000000D+01
             D   1 1.00
                  0.300000000          1.00000000
             D   1 1.00
                  0.090000000          1.00000000
             ****
             -Zn 0
             SP   6 1.00       0.000000000000
                  0.6936492000D+02 -0.4440098182D-02 -0.7689261805D-02
                  0.2362082000D+02  0.7505253308D-01 -0.2997981924D-01
                  0.1018471000D+02  0.2533111104D+00  0.7082410821D-01
                  0.4334082000D+01 -0.2881897118D+00  0.4046140897D+00
                  0.1810918000D+01 -0.7267052298D+00  0.4882324876D+00
                  0.7148410000D+00 -0.2133439088D+00  0.1751969956D+00
             SP   3 1.00       0.000000000000
                  0.2823842000D+01  0.4898545031D-01 -0.1586762981D+00
                  0.1039543000D+01  0.2592794075D+00  0.8379326898D-01
                  0.1432640000D+00 -0.1115711463D+01  0.9840546881D+00
             SP   1 1.00       0.000000000000
                  0.4929600000D-01  0.1000000000D+01  0.1000000000D+01
             S    1 1.00       0.000000000000
                  0.1620000000D+00  0.1000000000D+01
             D    3 1.00       0.000000000000
                  0.3370764000D+02  0.9262647815D-01
                  0.9061106000D+01  0.4002979920D+00
                  0.2738383000D+01  0.6896607863D+00
             D    1 1.00
                  0.2440000000D+01  0.1000000000D+01
             D    1 1.00       0.000000000000
                  0.7302940000D+00  0.1000000000D+01
             D    1 1.00       0.000000000000
                  0.1620000000D+00  0.1000000000D+01
             ****
             -Br,-I,-Zn 0
             SDDALL
            ****
 Initial command:
 /home/apps/g16/g16/l1.exe "/scratch/gaussian/jpablo/Gau-27890.inp" -scrdir="/scratch/gaussian/jpablo/"
 Entering Link 1 = /home/apps/g16/g16/l1.exe PID=     27891.
  
 Copyright (c) 1988,1990,1992,1993,1995,1998,2003,2009,2016,
            Gaussian, Inc.  All Rights Reserved.
  
 This is part of the Gaussian(R) 16 program.  It is based on
 the Gaussian(R) 09 system (copyright 2009, Gaussian, Inc.),
 the Gaussian(R) 03 system (copyright 2003, Gaussian, Inc.),
 the Gaussian(R) 98 system (copyright 1998, Gaussian, Inc.),
 the Gaussian(R) 94 system (copyright 1995, Gaussian, Inc.),
 the Gaussian 92(TM) system (copyright 1992, Gaussian, Inc.),
 the Gaussian 90(TM) system (copyright 1990, Gaussian, Inc.),
 the Gaussian 88(TM) system (copyright 1988, Gaussian, Inc.),
 the Gaussian 86(TM) system (copyright 1986, Carnegie Mellon
 University), and the Gaussian 82(TM) system (copyright 1983,
 Carnegie Mellon University). Gaussian is a federally registered
 trademark of Gaussian, Inc.
  
 This software contains proprietary and confidential information,
 including trade secrets, belonging to Gaussian, Inc.
  
 This software is provided under written license and may be
 used, copied, transmitted, or stored only in accord with that
 written license.
  
 The following legend is applicable only to US Government
 contracts under FAR:
  
                    RESTRICTED RIGHTS LEGEND
  
 Use, reproduction and disclosure by the US Government is
 subject to restrictions as set forth in subparagraphs (a)
 and (c) of the Commercial Computer Software - Restricted
 Rights clause in FAR 52.227-19.
  
 Gaussian, Inc.
 340 Quinnipiac St., Bldg. 40, Wallingford CT 06492
  
  
 ---------------------------------------------------------------
 Warning -- This program may not be used in any manner that
 competes with the business of Gaussian, Inc. or will provide
 assistance to any competitor of Gaussian, Inc.  The licensee
 of this program is prohibited from giving any competitor of
 Gaussian, Inc. access to this program.  By using this program,
 the user acknowledges that Gaussian, Inc. is engaged in the
 business of creating and licensing software in the field of
 computational chemistry and represents and warrants to the
 licensee that it is not a competitor of Gaussian, Inc. and that
 it will not use this program in any manner prohibited above.
 ---------------------------------------------------------------
  

 Cite this work as:
 Gaussian 16, Revision A.03,
 M. J. Frisch, G. W. Trucks, H. B. Schlegel, G. E. Scuseria, 
 M. A. Robb, J. R. Cheeseman, G. Scalmani, V. Barone, 
 G. A. Petersson, H. Nakatsuji, X. Li, M. Caricato, A. V. Marenich, 
 J. Bloino, B. G. Janesko, R. Gomperts, B. Mennucci, H. P. Hratchian, 
 J. V. Ortiz, A. F. Izmaylov, J. L. Sonnenberg, D. Williams-Young, 
 F. Ding, F. Lipparini, F. Egidi, J. Goings, B. Peng, A. Petrone, 
 T. Henderson, D. Ranasinghe, V. G. Zakrzewski, J. Gao, N. Rega, 
 G. Zheng, W. Liang, M. Hada, M. Ehara, K. Toyota, R. Fukuda, 
 J. Hasegawa, M. Ishida, T. Nakajima, Y. Honda, O. Kitao, H. Nakai, 
 T. Vreven, K. Throssell, J. A. Montgomery, Jr., J. E. Peralta, 
 F. Ogliaro, M. J. Bearpark, J. J. Heyd, E. N. Brothers, K. N. Kudin, 
 V. N. Staroverov, T. A. Keith, R. Kobayashi, J. Normand, 
 K. Raghavachari, A. P. Rendell, J. C. Burant, S. S. Iyengar, 
 J. Tomasi, M. Cossi, J. M. Millam, M. Klene, C. Adamo, R. Cammi, 
 J. W. Ochterski, R. L. Martin, K. Morokuma, O. Farkas, 
 J. B. Foresman, and D. J. Fox, Gaussian, Inc., Wallingford CT, 2016.
 
 ******************************************
 Gaussian 16:  ES64L-G16RevA.03 25-Dec-2016
                 4-Jun-2019 
 ******************************************
 %chk=trimero_ciclo_b3lypd3_n07d_ccl4_of.chk
 %mem=2GB
 %nprocshared=8
 Will use up to    8 processors via shared memory.
 ----------------------------------------------------------------------
 #p opt freq b3lyp/gen scrf=(solvent=ccl4,pcm) geom=connectivity empiri
 caldispersion=gd3
 ----------------------------------------------------------------------
 1/18=20,19=15,26=3,38=1,57=2/1,3;
 2/9=110,12=2,17=6,18=5,40=1/2;
 3/5=7,11=2,25=1,30=1,70=2201,71=1,72=11,74=-5,124=31/1,2,3;
 4//1;
 5/5=2,38=5,53=11/2;
 6/7=2,8=2,9=2,10=2,28=1/1;
 7//1,2,3,16;
 1/18=20,19=15,26=3/3(2);
 2/9=110/2;
 99//99;
 2/9=110/2;
 3/5=7,6=1,11=2,25=1,30=1,70=2205,71=1,72=11,74=-5,82=7,124=31/1,2,3;
 4/5=5,16=3,69=1/1;
 5/5=2,38=5,53=11/2;
 7//1,2,3,16;
 1/18=20,19=15,26=3/3(-5);
 2/9=110/2;
 6/7=2,8=2,9=2,10=2,19=2,28=1/1;
 99/9=1/99;
 Leave Link    1 at Tue Jun  4 18:41:37 2019, MaxMem=   268435456 cpu:               0.6 elap:               0.1
 (Enter /home/apps/g16/g16/l101.exe)
 -----
 Title
 -----
 Symbolic Z-matrix:
 Charge =  0 Multiplicity = 1
 C                     1.88807   3.97087  -0.60428 
 C                     3.18066   3.44375  -0.70168 
 C                     3.43936   2.16399  -0.20245 
 C                     2.42204   1.41012   0.38977 
 C                     1.13589   1.95132   0.48133 
 C                     0.86285   3.23016  -0.01336 
 H                     1.67451   4.96504  -0.98847 
 H                     3.97559   4.02367  -1.16213 
 H                     4.43744   1.73996  -0.27578 
 H                    -0.14464   3.62712   0.07407 
 H                     2.62322   0.40897   0.76226 
 O                     0.08567   1.25843   1.04262 
 H                     0.38011   0.3967    1.39083 
 C                    -5.16793  -1.15679  -0.64903 
 C                    -5.75627  -0.07154   0.01009 
 C                    -4.94321   0.94785   0.51426 
 C                    -3.55453   0.89004   0.36529 
 C                    -2.98015  -0.19994  -0.29836 
 C                    -3.78258  -1.22615  -0.80679 
 H                    -5.79012  -1.95527  -1.04522 
 H                    -6.8349   -0.02189   0.12942 
 H                    -5.38774   1.79499   1.0304 
 H                    -3.31165  -2.05994  -1.31984 
 C                     1.29923  -2.03271   0.54409 
 C                     1.33986  -2.08761  -0.8542 
 C                     2.51691  -2.49272  -1.48951 
 C                     3.64801  -2.83826  -0.74365 
 C                     3.59315  -2.78014   0.65344 
 C                     2.42303  -2.37991   1.30203 
 H                     0.46474  -1.79865  -1.43081 
 H                     2.54816  -2.53012  -2.57541 
 H                     4.56062  -3.14954  -1.24406 
 H                     4.46502  -3.04911   1.24442 
 H                     2.36244  -2.33128   2.38564 
 O                     0.18891  -1.59996   1.22592 
 H                    -0.54969  -1.44751   0.60394 
 H                    -2.91808   1.6764    0.76442 
 O                    -1.62199  -0.30989  -0.47225 
 H                    -1.16208   0.4679   -0.09591 
 
 Add virtual bond connecting atoms H39        and O12        Dist= 3.52D+00.
 Add virtual bond connecting atoms H13        and O35        Dist= 3.80D+00.
 Add virtual bond connecting atoms O38        and H36        Dist= 3.59D+00.
 ITRead=  0  0  0  0  0  0  0  0  0  0  0  0  0  0  0  0  0  0  0  0
 ITRead=  0  0  0  0  0  0  0  0  0  0  0  0  0  0  0  0  0  0  0
 MicOpt= -1 -1 -1 -1 -1 -1 -1 -1 -1 -1 -1 -1 -1 -1 -1 -1 -1 -1 -1 -1
 MicOpt= -1 -1 -1 -1 -1 -1 -1 -1 -1 -1 -1 -1 -1 -1 -1 -1 -1 -1 -1
 NAtoms=     39 NQM=       39 NQMF=       0 NMMI=      0 NMMIF=      0
                NMic=       0 NMicF=      0.
                    Isotopes and Nuclear Properties:
 (Nuclear quadrupole moments (NQMom) in fm**2, nuclear magnetic moments (NMagM)
  in nuclear magnetons)

  Atom         1           2           3           4           5           6           7           8           9          10
 IAtWgt=          12          12          12          12          12          12           1           1           1           1
 AtmWgt=  12.0000000  12.0000000  12.0000000  12.0000000  12.0000000  12.0000000   1.0078250   1.0078250   1.0078250   1.0078250
 NucSpn=           0           0           0           0           0           0           1           1           1           1
 AtZEff=  -0.0000000  -0.0000000  -0.0000000  -0.0000000  -0.0000000  -0.0000000  -0.0000000  -0.0000000  -0.0000000  -0.0000000
 NQMom=    0.0000000   0.0000000   0.0000000   0.0000000   0.0000000   0.0000000   0.0000000   0.0000000   0.0000000   0.0000000
 NMagM=    0.0000000   0.0000000   0.0000000   0.0000000   0.0000000   0.0000000   2.7928460   2.7928460   2.7928460   2.7928460
 AtZNuc=   6.0000000   6.0000000   6.0000000   6.0000000   6.0000000   6.0000000   1.0000000   1.0000000   1.0000000   1.0000000

  Atom        11          12          13          14          15          16          17          18          19          20
 IAtWgt=           1          16           1          12          12          12          12          12          12           1
 AtmWgt=   1.0078250  15.9949146   1.0078250  12.0000000  12.0000000  12.0000000  12.0000000  12.0000000  12.0000000   1.0078250
 NucSpn=           1           0           1           0           0           0           0           0           0           1
 AtZEff=  -0.0000000  -0.0000000  -0.0000000  -0.0000000  -0.0000000  -0.0000000  -0.0000000  -0.0000000  -0.0000000  -0.0000000
 NQMom=    0.0000000   0.0000000   0.0000000   0.0000000   0.0000000   0.0000000   0.0000000   0.0000000   0.0000000   0.0000000
 NMagM=    2.7928460   0.0000000   2.7928460   0.0000000   0.0000000   0.0000000   0.0000000   0.0000000   0.0000000   2.7928460
 AtZNuc=   1.0000000   8.0000000   1.0000000   6.0000000   6.0000000   6.0000000   6.0000000   6.0000000   6.0000000   1.0000000

  Atom        21          22          23          24          25          26          27          28          29          30
 IAtWgt=           1           1           1          12          12          12          12          12          12           1
 AtmWgt=   1.0078250   1.0078250   1.0078250  12.0000000  12.0000000  12.0000000  12.0000000  12.0000000  12.0000000   1.0078250
 NucSpn=           1           1           1           0           0           0           0           0           0           1
 AtZEff=  -0.0000000  -0.0000000  -0.0000000  -0.0000000  -0.0000000  -0.0000000  -0.0000000  -0.0000000  -0.0000000  -0.0000000
 NQMom=    0.0000000   0.0000000   0.0000000   0.0000000   0.0000000   0.0000000   0.0000000   0.0000000   0.0000000   0.0000000
 NMagM=    2.7928460   2.7928460   2.7928460   0.0000000   0.0000000   0.0000000   0.0000000   0.0000000   0.0000000   2.7928460
 AtZNuc=   1.0000000   1.0000000   1.0000000   6.0000000   6.0000000   6.0000000   6.0000000   6.0000000   6.0000000   1.0000000

  Atom        31          32          33          34          35          36          37          38          39
 IAtWgt=           1           1           1           1          16           1           1          16           1
 AtmWgt=   1.0078250   1.0078250   1.0078250   1.0078250  15.9949146   1.0078250   1.0078250  15.9949146   1.0078250
 NucSpn=           1           1           1           1           0           1           1           0           1
 AtZEff=  -0.0000000  -0.0000000  -0.0000000  -0.0000000  -0.0000000  -0.0000000  -0.0000000  -0.0000000  -0.0000000
 NQMom=    0.0000000   0.0000000   0.0000000   0.0000000   0.0000000   0.0000000   0.0000000   0.0000000   0.0000000
 NMagM=    2.7928460   2.7928460   2.7928460   2.7928460   0.0000000   2.7928460   2.7928460   0.0000000   2.7928460
 AtZNuc=   1.0000000   1.0000000   1.0000000   1.0000000   8.0000000   1.0000000   1.0000000   8.0000000   1.0000000
 Leave Link  101 at Tue Jun  4 18:41:37 2019, MaxMem=   268435456 cpu:               3.0 elap:               0.4
 (Enter /home/apps/g16/g16/l103.exe)

 GradGradGradGradGradGradGradGradGradGradGradGradGradGradGradGradGradGrad
 Berny optimization.
 Initialization pass.
                           ----------------------------
                           !    Initial Parameters    !
                           ! (Angstroms and Degrees)  !
 --------------------------                            --------------------------
 ! Name  Definition              Value          Derivative Info.                !
 --------------------------------------------------------------------------------
 ! R1    R(1,2)                  1.3993         estimate D2E/DX2                !
 ! R2    R(1,6)                  1.396          estimate D2E/DX2                !
 ! R3    R(1,7)                  1.087          estimate D2E/DX2                !
 ! R4    R(2,3)                  1.3978         estimate D2E/DX2                !
 ! R5    R(2,8)                  1.0864         estimate D2E/DX2                !
 ! R6    R(3,4)                  1.3978         estimate D2E/DX2                !
 ! R7    R(3,9)                  1.0869         estimate D2E/DX2                !
 ! R8    R(4,5)                  1.3984         estimate D2E/DX2                !
 ! R9    R(4,11)                 1.087          estimate D2E/DX2                !
 ! R10   R(5,6)                  1.3981         estimate D2E/DX2                !
 ! R11   R(5,12)                 1.3777         estimate D2E/DX2                !
 ! R12   R(6,10)                 1.0864         estimate D2E/DX2                !
 ! R13   R(12,13)                0.9749         estimate D2E/DX2                !
 ! R14   R(12,39)                1.865          estimate D2E/DX2                !
 ! R15   R(13,35)                2.0126         estimate D2E/DX2                !
 ! R16   R(14,15)                1.3994         estimate D2E/DX2                !
 ! R17   R(14,19)                1.396          estimate D2E/DX2                !
 ! R18   R(14,20)                1.087          estimate D2E/DX2                !
 ! R19   R(15,16)                1.398          estimate D2E/DX2                !
 ! R20   R(15,21)                1.0863         estimate D2E/DX2                !
 ! R21   R(16,17)                1.3978         estimate D2E/DX2                !
 ! R22   R(16,22)                1.087          estimate D2E/DX2                !
 ! R23   R(17,18)                1.3994         estimate D2E/DX2                !
 ! R24   R(17,37)                1.0875         estimate D2E/DX2                !
 ! R25   R(18,19)                1.3984         estimate D2E/DX2                !
 ! R26   R(18,38)                1.3737         estimate D2E/DX2                !
 ! R27   R(19,23)                1.0864         estimate D2E/DX2                !
 ! R28   R(24,25)                1.4            estimate D2E/DX2                !
 ! R29   R(24,29)                1.3993         estimate D2E/DX2                !
 ! R30   R(24,35)                1.3729         estimate D2E/DX2                !
 ! R31   R(25,26)                1.3976         estimate D2E/DX2                !
 ! R32   R(25,30)                1.0871         estimate D2E/DX2                !
 ! R33   R(26,27)                1.3982         estimate D2E/DX2                !
 ! R34   R(26,31)                1.087          estimate D2E/DX2                !
 ! R35   R(27,28)                1.3994         estimate D2E/DX2                !
 ! R36   R(27,32)                1.0864         estimate D2E/DX2                !
 ! R37   R(28,29)                1.3964         estimate D2E/DX2                !
 ! R38   R(28,33)                1.0871         estimate D2E/DX2                !
 ! R39   R(29,34)                1.0864         estimate D2E/DX2                !
 ! R40   R(35,36)                0.9776         estimate D2E/DX2                !
 ! R41   R(36,38)                1.8979         estimate D2E/DX2                !
 ! R42   R(38,39)                0.9788         estimate D2E/DX2                !
 ! A1    A(2,1,6)              120.5278         estimate D2E/DX2                !
 ! A2    A(2,1,7)              120.0927         estimate D2E/DX2                !
 ! A3    A(6,1,7)              119.3794         estimate D2E/DX2                !
 ! A4    A(1,2,3)              119.4044         estimate D2E/DX2                !
 ! A5    A(1,2,8)              120.2864         estimate D2E/DX2                !
 ! A6    A(3,2,8)              120.3092         estimate D2E/DX2                !
 ! A7    A(2,3,4)              120.6885         estimate D2E/DX2                !
 ! A8    A(2,3,9)              120.2006         estimate D2E/DX2                !
 ! A9    A(4,3,9)              119.1101         estimate D2E/DX2                !
 ! A10   A(3,4,5)              119.2344         estimate D2E/DX2                !
 ! A11   A(3,4,11)             120.478          estimate D2E/DX2                !
 ! A12   A(5,4,11)             120.2816         estimate D2E/DX2                !
 ! A13   A(4,5,6)              120.6943         estimate D2E/DX2                !
 ! A14   A(4,5,12)             122.2182         estimate D2E/DX2                !
 ! A15   A(6,5,12)             117.0846         estimate D2E/DX2                !
 ! A16   A(1,6,5)              119.4505         estimate D2E/DX2                !
 ! A17   A(1,6,10)             121.4152         estimate D2E/DX2                !
 ! A18   A(5,6,10)             119.1341         estimate D2E/DX2                !
 ! A19   A(5,12,13)            111.0888         estimate D2E/DX2                !
 ! A20   A(5,12,39)            118.3254         estimate D2E/DX2                !
 ! A21   A(13,12,39)            92.6041         estimate D2E/DX2                !
 ! A22   A(12,13,35)           144.978          estimate D2E/DX2                !
 ! A23   A(15,14,19)           120.5946         estimate D2E/DX2                !
 ! A24   A(15,14,20)           120.0444         estimate D2E/DX2                !
 ! A25   A(19,14,20)           119.361          estimate D2E/DX2                !
 ! A26   A(14,15,16)           119.395          estimate D2E/DX2                !
 ! A27   A(14,15,21)           120.3057         estimate D2E/DX2                !
 ! A28   A(16,15,21)           120.2992         estimate D2E/DX2                !
 ! A29   A(15,16,17)           120.6096         estimate D2E/DX2                !
 ! A30   A(15,16,22)           120.1097         estimate D2E/DX2                !
 ! A31   A(17,16,22)           119.2806         estimate D2E/DX2                !
 ! A32   A(16,17,18)           119.3734         estimate D2E/DX2                !
 ! A33   A(16,17,37)           120.8218         estimate D2E/DX2                !
 ! A34   A(18,17,37)           119.8033         estimate D2E/DX2                !
 ! A35   A(17,18,19)           120.5626         estimate D2E/DX2                !
 ! A36   A(17,18,38)           121.8829         estimate D2E/DX2                !
 ! A37   A(19,18,38)           117.5541         estimate D2E/DX2                !
 ! A38   A(14,19,18)           119.4647         estimate D2E/DX2                !
 ! A39   A(14,19,23)           121.4446         estimate D2E/DX2                !
 ! A40   A(18,19,23)           119.0904         estimate D2E/DX2                !
 ! A41   A(25,24,29)           120.5297         estimate D2E/DX2                !
 ! A42   A(25,24,35)           122.1311         estimate D2E/DX2                !
 ! A43   A(29,24,35)           117.3042         estimate D2E/DX2                !
 ! A44   A(24,25,26)           119.331          estimate D2E/DX2                !
 ! A45   A(24,25,30)           119.7349         estimate D2E/DX2                !
 ! A46   A(26,25,30)           120.925          estimate D2E/DX2                !
 ! A47   A(25,26,27)           120.6939         estimate D2E/DX2                !
 ! A48   A(25,26,31)           119.2298         estimate D2E/DX2                !
 ! A49   A(27,26,31)           120.0748         estimate D2E/DX2                !
 ! A50   A(26,27,28)           119.3786         estimate D2E/DX2                !
 ! A51   A(26,27,32)           120.309          estimate D2E/DX2                !
 ! A52   A(28,27,32)           120.3125         estimate D2E/DX2                !
 ! A53   A(27,28,29)           120.561          estimate D2E/DX2                !
 ! A54   A(27,28,33)           120.0682         estimate D2E/DX2                !
 ! A55   A(29,28,33)           119.3707         estimate D2E/DX2                !
 ! A56   A(24,29,28)           119.5054         estimate D2E/DX2                !
 ! A57   A(24,29,34)           118.9721         estimate D2E/DX2                !
 ! A58   A(28,29,34)           121.5226         estimate D2E/DX2                !
 ! A59   A(13,35,24)           106.0556         estimate D2E/DX2                !
 ! A60   A(13,35,36)            88.2349         estimate D2E/DX2                !
 ! A61   A(24,35,36)           110.1332         estimate D2E/DX2                !
 ! A62   A(35,36,38)           151.7781         estimate D2E/DX2                !
 ! A63   A(18,38,36)           122.3306         estimate D2E/DX2                !
 ! A64   A(18,38,39)           110.6271         estimate D2E/DX2                !
 ! A65   A(36,38,39)            89.5884         estimate D2E/DX2                !
 ! A66   A(12,39,38)           152.3628         estimate D2E/DX2                !
 ! D1    D(6,1,2,3)              0.0753         estimate D2E/DX2                !
 ! D2    D(6,1,2,8)           -179.9884         estimate D2E/DX2                !
 ! D3    D(7,1,2,3)            179.9775         estimate D2E/DX2                !
 ! D4    D(7,1,2,8)             -0.0863         estimate D2E/DX2                !
 ! D5    D(2,1,6,5)             -0.0946         estimate D2E/DX2                !
 ! D6    D(2,1,6,10)           179.7055         estimate D2E/DX2                !
 ! D7    D(7,1,6,5)           -179.9974         estimate D2E/DX2                !
 ! D8    D(7,1,6,10)            -0.1973         estimate D2E/DX2                !
 ! D9    D(1,2,3,4)              0.0306         estimate D2E/DX2                !
 ! D10   D(1,2,3,9)            179.6938         estimate D2E/DX2                !
 ! D11   D(8,2,3,4)           -179.9057         estimate D2E/DX2                !
 ! D12   D(8,2,3,9)             -0.2425         estimate D2E/DX2                !
 ! D13   D(2,3,4,5)             -0.115          estimate D2E/DX2                !
 ! D14   D(2,3,4,11)           178.9995         estimate D2E/DX2                !
 ! D15   D(9,3,4,5)           -179.7818         estimate D2E/DX2                !
 ! D16   D(9,3,4,11)            -0.6673         estimate D2E/DX2                !
 ! D17   D(3,4,5,6)              0.0954         estimate D2E/DX2                !
 ! D18   D(3,4,5,12)           179.4505         estimate D2E/DX2                !
 ! D19   D(11,4,5,6)          -179.0209         estimate D2E/DX2                !
 ! D20   D(11,4,5,12)            0.3342         estimate D2E/DX2                !
 ! D21   D(4,5,6,1)              0.0084         estimate D2E/DX2                !
 ! D22   D(4,5,6,10)          -179.7963         estimate D2E/DX2                !
 ! D23   D(12,5,6,1)          -179.3788         estimate D2E/DX2                !
 ! D24   D(12,5,6,10)            0.8165         estimate D2E/DX2                !
 ! D25   D(4,5,12,13)            2.9817         estimate D2E/DX2                !
 ! D26   D(4,5,12,39)         -102.2776         estimate D2E/DX2                !
 ! D27   D(6,5,12,13)         -177.6411         estimate D2E/DX2                !
 ! D28   D(6,5,12,39)           77.0996         estimate D2E/DX2                !
 ! D29   D(5,12,13,35)        -117.0282         estimate D2E/DX2                !
 ! D30   D(39,12,13,35)          4.748          estimate D2E/DX2                !
 ! D31   D(5,12,39,38)         116.2842         estimate D2E/DX2                !
 ! D32   D(13,12,39,38)          0.5819         estimate D2E/DX2                !
 ! D33   D(12,13,35,24)        102.4575         estimate D2E/DX2                !
 ! D34   D(12,13,35,36)         -7.9978         estimate D2E/DX2                !
 ! D35   D(19,14,15,16)         -0.091          estimate D2E/DX2                !
 ! D36   D(19,14,15,21)        179.9437         estimate D2E/DX2                !
 ! D37   D(20,14,15,16)       -179.9977         estimate D2E/DX2                !
 ! D38   D(20,14,15,21)          0.0369         estimate D2E/DX2                !
 ! D39   D(15,14,19,18)          0.0715         estimate D2E/DX2                !
 ! D40   D(15,14,19,23)       -179.7295         estimate D2E/DX2                !
 ! D41   D(20,14,19,18)        179.9789         estimate D2E/DX2                !
 ! D42   D(20,14,19,23)          0.1778         estimate D2E/DX2                !
 ! D43   D(14,15,16,17)         -0.016          estimate D2E/DX2                !
 ! D44   D(14,15,16,22)       -179.8477         estimate D2E/DX2                !
 ! D45   D(21,15,16,17)        179.9493         estimate D2E/DX2                !
 ! D46   D(21,15,16,22)          0.1176         estimate D2E/DX2                !
 ! D47   D(15,16,17,18)          0.1405         estimate D2E/DX2                !
 ! D48   D(15,16,17,37)       -179.4138         estimate D2E/DX2                !
 ! D49   D(22,16,17,18)        179.9735         estimate D2E/DX2                !
 ! D50   D(22,16,17,37)          0.4193         estimate D2E/DX2                !
 ! D51   D(16,17,18,19)         -0.1603         estimate D2E/DX2                !
 ! D52   D(16,17,18,38)       -179.916          estimate D2E/DX2                !
 ! D53   D(37,17,18,19)        179.3986         estimate D2E/DX2                !
 ! D54   D(37,17,18,38)         -0.3572         estimate D2E/DX2                !
 ! D55   D(17,18,19,14)          0.0552         estimate D2E/DX2                !
 ! D56   D(17,18,19,23)        179.861          estimate D2E/DX2                !
 ! D57   D(38,18,19,14)        179.8213         estimate D2E/DX2                !
 ! D58   D(38,18,19,23)         -0.3729         estimate D2E/DX2                !
 ! D59   D(17,18,38,36)        101.8524         estimate D2E/DX2                !
 ! D60   D(17,18,38,39)         -1.3951         estimate D2E/DX2                !
 ! D61   D(19,18,38,36)        -77.9104         estimate D2E/DX2                !
 ! D62   D(19,18,38,39)        178.8421         estimate D2E/DX2                !
 ! D63   D(29,24,25,26)         -0.0443         estimate D2E/DX2                !
 ! D64   D(29,24,25,30)       -178.9518         estimate D2E/DX2                !
 ! D65   D(35,24,25,26)        177.7456         estimate D2E/DX2                !
 ! D66   D(35,24,25,30)         -1.1619         estimate D2E/DX2                !
 ! D67   D(25,24,29,28)          0.1785         estimate D2E/DX2                !
 ! D68   D(25,24,29,34)       -179.8002         estimate D2E/DX2                !
 ! D69   D(35,24,29,28)       -177.7153         estimate D2E/DX2                !
 ! D70   D(35,24,29,34)          2.306          estimate D2E/DX2                !
 ! D71   D(25,24,35,13)        -87.9504         estimate D2E/DX2                !
 ! D72   D(25,24,35,36)          6.1423         estimate D2E/DX2                !
 ! D73   D(29,24,35,13)         89.9072         estimate D2E/DX2                !
 ! D74   D(29,24,35,36)       -176.0001         estimate D2E/DX2                !
 ! D75   D(24,25,26,27)         -0.1554         estimate D2E/DX2                !
 ! D76   D(24,25,26,31)       -179.7054         estimate D2E/DX2                !
 ! D77   D(30,25,26,27)        178.7388         estimate D2E/DX2                !
 ! D78   D(30,25,26,31)         -0.8112         estimate D2E/DX2                !
 ! D79   D(25,26,27,28)          0.2176         estimate D2E/DX2                !
 ! D80   D(25,26,27,32)       -179.8219         estimate D2E/DX2                !
 ! D81   D(31,26,27,28)        179.7638         estimate D2E/DX2                !
 ! D82   D(31,26,27,32)         -0.2756         estimate D2E/DX2                !
 ! D83   D(26,27,28,29)         -0.0809         estimate D2E/DX2                !
 ! D84   D(26,27,28,33)        179.8213         estimate D2E/DX2                !
 ! D85   D(32,27,28,29)        179.9585         estimate D2E/DX2                !
 ! D86   D(32,27,28,33)         -0.1392         estimate D2E/DX2                !
 ! D87   D(27,28,29,24)         -0.1152         estimate D2E/DX2                !
 ! D88   D(27,28,29,34)        179.8629         estimate D2E/DX2                !
 ! D89   D(33,28,29,24)        179.9818         estimate D2E/DX2                !
 ! D90   D(33,28,29,34)         -0.04           estimate D2E/DX2                !
 ! D91   D(13,35,36,38)          8.5734         estimate D2E/DX2                !
 ! D92   D(24,35,36,38)        -97.8906         estimate D2E/DX2                !
 ! D93   D(35,36,38,18)       -121.3255         estimate D2E/DX2                !
 ! D94   D(35,36,38,39)         -6.9711         estimate D2E/DX2                !
 ! D95   D(18,38,39,12)        123.2771         estimate D2E/DX2                !
 ! D96   D(36,38,39,12)         -1.3859         estimate D2E/DX2                !
 --------------------------------------------------------------------------------
 Trust Radius=3.00D-01 FncErr=1.00D-07 GrdErr=1.00D-06 EigMax=2.50D+02 EigMin=1.00D-04
 Number of steps in this run=    214 maximum allowed number of steps=    234.
 GradGradGradGradGradGradGradGradGradGradGradGradGradGradGradGradGradGrad

 Leave Link  103 at Tue Jun  4 18:41:37 2019, MaxMem=   268435456 cpu:               0.1 elap:               0.0
 (Enter /home/apps/g16/g16/l202.exe)
                          Input orientation:                          
 ---------------------------------------------------------------------
 Center     Atomic      Atomic             Coordinates (Angstroms)
 Number     Number       Type             X           Y           Z
 ---------------------------------------------------------------------
      1          6           0        1.888070    3.970870   -0.604280
      2          6           0        3.180660    3.443750   -0.701680
      3          6           0        3.439360    2.163990   -0.202450
      4          6           0        2.422040    1.410120    0.389770
      5          6           0        1.135890    1.951320    0.481330
      6          6           0        0.862850    3.230160   -0.013360
      7          1           0        1.674510    4.965040   -0.988470
      8          1           0        3.975590    4.023670   -1.162130
      9          1           0        4.437440    1.739960   -0.275780
     10          1           0       -0.144640    3.627120    0.074070
     11          1           0        2.623220    0.408970    0.762260
     12          8           0        0.085670    1.258430    1.042620
     13          1           0        0.380110    0.396700    1.390830
     14          6           0       -5.167930   -1.156790   -0.649030
     15          6           0       -5.756270   -0.071540    0.010090
     16          6           0       -4.943210    0.947850    0.514260
     17          6           0       -3.554530    0.890040    0.365290
     18          6           0       -2.980150   -0.199940   -0.298360
     19          6           0       -3.782580   -1.226150   -0.806790
     20          1           0       -5.790120   -1.955270   -1.045220
     21          1           0       -6.834900   -0.021890    0.129420
     22          1           0       -5.387740    1.794990    1.030400
     23          1           0       -3.311650   -2.059940   -1.319840
     24          6           0        1.299230   -2.032710    0.544090
     25          6           0        1.339860   -2.087610   -0.854200
     26          6           0        2.516910   -2.492720   -1.489510
     27          6           0        3.648010   -2.838260   -0.743650
     28          6           0        3.593150   -2.780140    0.653440
     29          6           0        2.423030   -2.379910    1.302030
     30          1           0        0.464740   -1.798650   -1.430810
     31          1           0        2.548160   -2.530120   -2.575410
     32          1           0        4.560620   -3.149540   -1.244060
     33          1           0        4.465020   -3.049110    1.244420
     34          1           0        2.362440   -2.331280    2.385640
     35          8           0        0.188910   -1.599960    1.225920
     36          1           0       -0.549690   -1.447510    0.603940
     37          1           0       -2.918080    1.676400    0.764420
     38          8           0       -1.621990   -0.309890   -0.472250
     39          1           0       -1.162080    0.467900   -0.095910
 ---------------------------------------------------------------------
                    Distance matrix (angstroms):
                    1          2          3          4          5
     1  C    0.000000
     2  C    1.399332   0.000000
     3  C    2.415116   1.397835   0.000000
     4  C    2.798339   2.429489   1.397850   0.000000
     5  C    2.413070   2.794270   2.412210   1.398379   0.000000
     6  C    1.396035   2.427272   2.794795   2.430254   1.398106
     7  H    1.087007   2.159875   3.402705   3.885332   3.396017
     8  H    2.161417   1.086386   2.160310   3.413584   3.880656
     9  H    3.403551   2.159580   1.086896   2.147927   3.393836
    10  H    2.170307   3.419508   3.881014   3.406259   2.148005
    11  H    3.885230   3.415223   2.162601   1.086979   2.160999
    12  O    3.649419   4.170991   3.690186   2.430606   1.377717
    13  H    4.362235   4.637477   3.875676   2.489703   1.953263
    14  C    8.722502   9.532402   9.236474   8.079343   7.118722
    15  C    8.669167   9.629777   9.465853   8.320110   7.198326
    16  C    7.553553   8.585179   8.500597   7.380793   6.161452
    17  C    6.328781   7.281665   7.131604   5.999206   4.810387
    18  C    6.417851   7.169011   6.841599   5.678862   4.709312
    19  C    7.694563   8.384851   8.000918   6.846823   5.995575
    20  H    9.709179  10.475797  10.142084   8.990251   8.097000
    21  H    9.621364  10.630749  10.509454   9.370666   8.218935
    22  H    7.768143   8.895841   8.920413   7.845457   6.548562
    23  H    7.994985   8.533628   8.041535   6.916595   6.254201
    24  C    6.140721   5.923119   4.769672   3.624582   3.987871
    25  C    6.088364   5.831616   4.786312   3.866871   4.258897
    26  C    6.554164   6.025190   4.918576   4.332765   5.053802
    27  C    7.034278   6.299510   5.035766   4.564688   5.545394
    28  C    7.075683   6.383048   5.020022   4.358819   5.334272
    29  C    6.652263   6.205149   4.893201   3.898275   4.592367
    30  H    5.999698   5.949001   5.104875   4.176331   4.262511
    31  H    6.825243   6.292698   5.334777   4.932919   5.605486
    32  H    7.632305   6.757954   5.529537   5.294660   6.381577
    33  H    7.703148   6.898849   5.506525   4.978848   6.055552
    34  H    6.991548   6.599394   5.297681   4.240887   4.844738
    35  O    6.104992   6.172943   5.174262   3.840130   3.750037
    36  H    6.063111   6.288448   5.441114   4.128329   3.795821
    37  H    5.498819   6.516717   6.449002   5.359865   4.073131
    38  O    5.537405   6.099828   5.640048   4.478358   3.691651
    39  H    4.672543   5.299248   4.905234   3.737590   2.795426
                    6          7          8          9         10
     6  C    0.000000
     7  H    2.149288   0.000000
     8  H    3.411522   2.492249   0.000000
     9  H    3.881656   4.306141   2.492840   0.000000
    10  H    1.086396   2.495662   4.319923   4.967819   0.000000
    11  H    3.414616   4.972211   4.312567   2.477994   4.300133
    12  O    2.367873   4.515384   5.257276   4.572521   2.569402
    13  H    3.198950   5.310958   5.709640   4.587359   3.527723
    14  C    7.484632   9.187546  10.521616  10.039602   6.974390
    15  C    7.396927   9.032206  10.623274  10.357363   6.721203
    16  C    6.260803   7.886078   9.582064   9.447126   5.513486
    17  C    5.013261   6.766177   8.297913   8.062563   4.382210
    18  C    5.159017   6.987069   8.183355   7.667096   4.777574
    19  C    6.486004   8.254918   9.374224   8.754913   6.129009
    20  H    8.497966  10.179126  11.451222  10.901823   8.017938
    21  H    8.357725   9.926188  11.614704  11.416390   7.620887
    22  H    6.497617   8.000027   9.871482   9.911776   5.635722
    23  H    6.864292   8.621017   9.494159   8.693543   6.656995
    24  C    5.310271   7.173429   6.837677   4.975298   5.859979
    25  C    5.404926   7.061862   6.662555   4.957808   5.976919
    26  C    6.137287   7.521892   6.685676   4.803869   6.854274
    27  C    6.716856   8.052709   6.882479   4.669283   7.540159
    28  C    6.634973   8.146463   7.052261   4.691224   7.440412
    29  C    5.969698   7.730133   7.034797   4.849810   6.647197
    30  H    5.239903   6.885253   6.804239   5.444098   5.663478
    31  H    6.525733   7.710971   6.854712   5.204927   7.223747
    32  H    7.475874   8.616343   7.197494   4.985975   8.354643
    33  H    7.347576   8.774927   7.487005   5.024635   8.196995
    34  H    6.239678   8.068095   7.454818   5.288079   6.865227
    35  O    5.031905   7.085884   7.187972   5.608937   5.362870
    36  H    4.925132   6.971631   7.316486   5.983756   5.118271
    37  H    4.161075   5.914360   7.532859   7.428979   3.460327
    38  O    4.349364   6.241657   7.112565   6.399779   4.240410
    39  H    3.425965   5.391398   6.338452   5.745008   3.323364
                   11         12         13         14         15
    11  H    0.000000
    12  O    2.690603   0.000000
    13  H    2.329548   0.974948   0.000000
    14  C    8.071268   6.024556   6.111883   0.000000
    15  C    8.426892   6.079737   6.307206   1.399411   0.000000
    16  C    7.589648   5.066089   5.423087   2.415213   1.398002
    17  C    6.209155   3.720960   4.095914   2.796680   2.428675
    18  C    5.735280   3.650250   3.807977   2.413486   2.796153
    19  C    6.794837   4.955483   4.979073   1.396028   2.428141
    20  H    8.924175   7.015116   7.038312   1.087041   2.159459
    21  H    9.489055   7.097002   7.336398   2.161659   1.086346
    22  H    8.134398   5.499660   5.945857   3.403205   2.158884
    23  H    6.756725   5.304204   5.197298   2.170586   3.420324
    24  C    2.786099   3.543002   2.731993   6.634375   7.342440
    25  C    3.239270   4.045603   3.483257   6.577222   7.427422
    26  C    3.674449   5.137483   4.605542   7.845246   8.749653
    27  C    3.723233   5.715234   5.069531   8.975360   9.831752
    28  C    3.335120   5.363201   4.578175   9.004900   9.755105
    29  C    2.847680   4.332212   3.448329   7.932549   8.596431
    30  H    3.787107   3.950606   3.576084   5.722773   6.615139
    31  H    4.447912   5.788533   5.384958   8.070627   9.038417
    32  H    4.521264   6.684630   6.082362   9.948357  10.839059
    33  H    3.947534   6.146083   5.346170   9.997987  10.717475
    34  H    3.195675   4.457959   3.515843   8.203360   8.755748
    35  O    3.190086   2.866121   2.012562   5.692765   6.257753
    36  H    3.679530   2.813936   2.210166   4.794016   5.417973
    37  H    5.684399   3.045424   3.592781   3.884151   3.417547
    38  O    4.479127   2.769578   2.824667   3.649956   4.169141
    39  H    3.881807   1.864958   2.143319   4.358026   4.626966
                   16         17         18         19         20
    16  C    0.000000
    17  C    1.397843   0.000000
    18  C    2.414825   1.399428   0.000000
    19  C    2.796160   2.429823   1.398393   0.000000
    20  H    3.402549   3.883708   3.396309   2.149112   0.000000
    21  H    2.160321   3.412928   3.882499   3.412241   2.491847
    22  H    1.087039   2.149876   3.397328   3.883181   4.305178
    23  H    3.882359   3.406029   2.147769   1.086371   2.495834
    24  C    6.917564   5.668635   4.730947   5.319794   7.265727
    25  C    7.110814   5.857355   4.747077   5.194589   7.133766
    26  C    8.456122   7.193451   6.073989   6.461724   8.336246
    27  C    9.472382   8.185753   7.147833   7.603720   9.484140
    28  C    9.315939   8.040061   7.125421   7.677796   9.571396
    29  C    8.121334   6.877592   6.042174   6.654914   8.552528
    30  H    6.369653   5.158446   3.963027   4.330922   6.268691
    31  H    8.818331   7.588678   6.416923   6.701240   8.496990
    32  H   10.497765   9.206730   8.152159   8.573192  10.421307
    33  H   10.248103   8.977915   8.119636   8.692155  10.564414
    34  H    8.223581   7.033438   6.347419   7.012431   8.853046
    35  O    5.773773   4.577568   3.785027   4.477095   6.405710
    36  H    5.004879   3.814467   2.877101   3.534224   5.517214
    37  H    2.166683   1.087536   2.157314   3.411870   4.971161
    38  O    3.685867   2.424050   1.373654   2.370569   4.517619
    39  H    3.860000   2.472797   1.947402   3.200340   5.309585
                   21         22         23         24         25
    21  H    0.000000
    22  H    2.491403   0.000000
    23  H    4.320566   4.969332   0.000000
    24  C    8.389244   7.720321   4.973449   0.000000
    25  C    8.488899   7.992928   4.674840   1.399957   0.000000
    26  C    9.807257   9.339052   5.847067   2.414515   1.397562
    27  C   10.889701  10.308202   7.026709   2.797133   2.429661
    28  C   10.799387  10.086144   7.217256   2.415094   2.798194
    29  C    9.625203   8.860683   6.313726   1.399267   2.430643
    30  H    7.673066   7.295432   3.787045   2.156708   1.087112
    31  H   10.082120   9.730722   6.011231   3.396840   2.149039
    32  H   11.896492  11.339815   7.947679   3.883485   3.413646
    33  H   11.751403  10.981256   8.248059   3.397905   3.885269
    34  H    9.747557   8.884147   6.782293   2.147293   3.406113
    35  O    7.281931   6.531687   4.352746   1.372944   2.426806
    36  H    6.462308   5.839726   3.421173   1.940244   2.471093
    37  H    4.316120   2.486771   4.296426   5.620654   5.909125
    38  O    5.255414   4.568298   2.576050   3.540421   3.475447
    39  H    5.698382   4.570114   3.536754   3.566609   3.655864
                   26         27         28         29         30
    26  C    0.000000
    27  C    1.398246   0.000000
    28  C    2.415189   1.399374   0.000000
    29  C    2.795395   2.428058   1.396436   0.000000
    30  H    2.167160   3.418506   3.885147   3.411917   0.000000
    31  H    1.086993   2.158695   3.402938   3.882365   2.487126
    32  H    2.160650   1.086353   2.161703   3.412359   4.316945
    33  H    3.402804   2.159719   1.087088   2.149621   4.972197
    34  H    3.881586   3.420844   2.171783   1.086392   4.295375
    35  O    3.686484   4.168689   3.648206   2.367574   2.678390
    36  H    3.857335   4.622864   4.352181   3.192767   2.300560
    37  H    7.211163   8.109869   7.891082   6.728308   5.323390
    38  O    4.788534   5.851428   5.879371   4.878036   2.736729
    39  H    4.923653   5.872583   5.807194   4.787199   3.092855
                   31         32         33         34         35
    31  H    0.000000
    32  H    2.491218   0.000000
    33  H    4.305207   2.492340   0.000000
    34  H    4.968505   4.321605   2.497700   0.000000
    35  O    4.569614   5.254888   4.515030   2.569827   0.000000
    36  H    4.569134   5.694495   5.303080   3.526472   0.977563
    37  H    7.663488   9.124398   8.779010   6.824496   4.538822
    38  O    5.171349   6.847187   6.892167   5.303700   2.797753
    39  H    5.376051   6.866834   6.769793   5.139625   2.801509
                   36         37         38         39
    36  H    0.000000
    37  H    3.923498   0.000000
    38  O    1.897944   2.674799   0.000000
    39  H    2.129227   2.298734   0.978829   0.000000
 Stoichiometry    C18H18O3
 Framework group  C1[X(C18H18O3)]
 Deg. of freedom   111
 Full point group                 C1      NOp   1
 Largest Abelian subgroup         C1      NOp   1
 Largest concise Abelian subgroup C1      NOp   1
                         Standard orientation:                         
 ---------------------------------------------------------------------
 Center     Atomic      Atomic             Coordinates (Angstroms)
 Number     Number       Type             X           Y           Z
 ---------------------------------------------------------------------
      1          6           0       -1.888069    3.970870    0.604280
      2          6           0       -3.180659    3.443750    0.701680
      3          6           0       -3.439359    2.163990    0.202450
      4          6           0       -2.422040    1.410120   -0.389770
      5          6           0       -1.135889    1.951320   -0.481330
      6          6           0       -0.862849    3.230160    0.013360
      7          1           0       -1.674509    4.965040    0.988470
      8          1           0       -3.975589    4.023671    1.162130
      9          1           0       -4.437439    1.739961    0.275780
     10          1           0        0.144641    3.627120   -0.074070
     11          1           0       -2.623220    0.408970   -0.762260
     12          8           0       -0.085670    1.258430   -1.042620
     13          1           0       -0.380110    0.396700   -1.390830
     14          6           0        5.167930   -1.156792    0.649030
     15          6           0        5.756270   -0.071542   -0.010090
     16          6           0        4.943210    0.947848   -0.514260
     17          6           0        3.554530    0.890039   -0.365290
     18          6           0        2.980150   -0.199941    0.298360
     19          6           0        3.782580   -1.226151    0.806790
     20          1           0        5.790120   -1.955272    1.045220
     21          1           0        6.834900   -0.021892   -0.129420
     22          1           0        5.387741    1.794988   -1.030400
     23          1           0        3.311650   -2.059941    1.319840
     24          6           0       -1.299230   -2.032710   -0.544090
     25          6           0       -1.339860   -2.087610    0.854200
     26          6           0       -2.516911   -2.492720    1.489510
     27          6           0       -3.648011   -2.838259    0.743650
     28          6           0       -3.593151   -2.780139   -0.653440
     29          6           0       -2.423031   -2.379910   -1.302030
     30          1           0       -0.464740   -1.798650    1.430810
     31          1           0       -2.548161   -2.530120    2.575410
     32          1           0       -4.560621   -3.149539    1.244060
     33          1           0       -4.465021   -3.049109   -1.244420
     34          1           0       -2.362441   -2.331280   -2.385640
     35          8           0       -0.188910   -1.599960   -1.225920
     36          1           0        0.549690   -1.447511   -0.603940
     37          1           0        2.918080    1.676399   -0.764420
     38          8           0        1.621990   -0.309891    0.472250
     39          1           0        1.162080    0.467899    0.095910
 ---------------------------------------------------------------------
 Rotational constants (GHZ):           0.3545239           0.1807520           0.1307126
 Leave Link  202 at Tue Jun  4 18:41:37 2019, MaxMem=   268435456 cpu:               0.1 elap:               0.0
 (Enter /home/apps/g16/g16/l301.exe)
 General basis read from cards:  (5D, 7F)
 Centers:       7      8      9     10     11     13     20     21     22     23
 Centers:      30     31     32     33     34     36     37     39
 6-31G
 P 1 1.00 0.000000000000
     Exponent=  7.5000000000D-01 Coefficients=  1.0000000000D+00
 ****
 Centers:       1      2      3      4      5      6     14     15     16     17
 Centers:      18     19     24     25     26     27     28     29
 6-31G
 S 1 1.00 0.000000000000
     Exponent=  7.5000000000D+00 Coefficients=  1.0000000000D+00
 P 1 1.00 0.000000000000
     Exponent=  5.0000000000D-02 Coefficients=  1.0000000000D+00
 D 1 1.00 0.000000000000
     Exponent=  8.2000000000D-01 Coefficients=  1.0000000000D+00
 ****
 Centers:      12     35     38
 6-31G
 S 1 1.00
     Exponent=  1.5100000000D+01 Coefficients=  1.0000000000D+00
 P 1 1.00 0.000000000000
     Exponent=  6.5000000000D-02 Coefficients=  1.0000000000D+00
 D 1 1.00 0.000000000000
     Exponent=  1.1900000000D+00 Coefficients=  1.0000000000D+00
 D 1 1.00 0.000000000000
     Exponent=  1.8000000000D-01 Coefficients=  1.0000000000D+00
 ****
 Ernie: Thresh=  0.10000D-02 Tol=  0.10000D-05 Strict=F.
 There are   507 symmetry adapted cartesian basis functions of A   symmetry.
 There are   483 symmetry adapted basis functions of A   symmetry.
   483 basis functions,   816 primitive gaussians,   507 cartesian basis functions
    75 alpha electrons       75 beta electrons
       nuclear repulsion energy      1523.0296556951 Hartrees.
 IExCor=  402 DFT=T Ex+Corr=B3LYP ExCW=0 ScaHFX=  0.200000
 ScaDFX=  0.800000  0.720000  1.000000  0.810000 ScalE2=  1.000000  1.000000
 IRadAn=      5 IRanWt=     -1 IRanGd=            0 ICorTp=0 IEmpDi=131
 NAtoms=   39 NActive=   39 NUniq=   39 SFac= 1.00D+00 NAtFMM=   60 NAOKFM=F Big=F
 Integral buffers will be    131072 words long.
 Raffenetti 2 integral format.
 Two-electron integral symmetry is turned on.
 R6Disp:  Grimme-D3 Dispersion energy=       -0.0335712133 Hartrees.
 Nuclear repulsion after empirical dispersion term =     1522.9960844818 Hartrees.
 ------------------------------------------------------------------------------
 Polarizable Continuum Model (PCM)
 =================================
 Model                : PCM.
 Atomic radii         : UFF (Universal Force Field).
 Polarization charges : Total charges.
 Charge compensation  : None.
 Solution method      : On-the-fly selection.
 Cavity type          : Scaled VdW (van der Waals Surface) (Alpha=1.100).
 Cavity algorithm     : GePol (No added spheres)
                        Default sphere list used, NSphG=   39.
                        Lebedev-Laikov grids with approx.  5.0 points / Ang**2.
                        Smoothing algorithm: York/Karplus (Gamma=1.0000).
                        Polarization charges: spherical gaussians, with
                                              point-specific exponents (IZeta= 3).
                        Self-potential: point-specific (ISelfS= 7).
                        Self-field    : sphere-specific E.n sum rule (ISelfD= 2).
 1st derivatives      : Analytical E(r).r(x)/FMM algorithm (CHGder, D1EAlg=3).
                        Cavity 1st derivative terms included.
 Solvent              : CarbonTetraChloride, Eps=   2.228000 Eps(inf)=   2.131892
 ------------------------------------------------------------------------------
 GePol: Number of generator spheres                  =      39
 GePol: Total number of spheres                      =      39
 GePol: Number of exposed spheres                    =      39 (100.00%)
 GePol: Number of points                             =    3088
 GePol: Average weight of points                     =       0.13
 GePol: Minimum weight of points                     =   0.41D-10
 GePol: Maximum weight of points                     =    0.20577
 GePol: Number of points with low weight             =     225
 GePol: Fraction of low-weight points (<1% of avg)   =       7.29%
 GePol: Cavity surface area                          =    392.878 Ang**2
 GePol: Cavity volume                                =    418.404 Ang**3
 Leave Link  301 at Tue Jun  4 18:41:38 2019, MaxMem=   268435456 cpu:               1.2 elap:               0.2
 (Enter /home/apps/g16/g16/l302.exe)
 NPDir=0 NMtPBC=     1 NCelOv=     1 NCel=       1 NClECP=     1 NCelD=      1
         NCelK=      1 NCelE2=     1 NClLst=     1 CellRange=     0.0.
 One-electron integrals computed using PRISM.
 One-electron integral symmetry used in STVInt
 NBasis=   483 RedAO= T EigKep=  1.86D-05  NBF=   483
 NBsUse=   483 1.00D-06 EigRej= -1.00D+00 NBFU=   483
 Precomputing XC quadrature grid using
 IXCGrd= 4 IRadAn=           5 IRanWt=          -1 IRanGd=           0 AccXCQ= 0.00D+00.
 Generated NRdTot=       0 NPtTot=           0 NUsed=           0 NTot=          32
 NSgBfM=   496   496   496   496   496 MxSgAt=    39 MxSgA2=    39.
 Leave Link  302 at Tue Jun  4 18:41:40 2019, MaxMem=   268435456 cpu:              16.3 elap:               2.0
 (Enter /home/apps/g16/g16/l303.exe)
 DipDrv:  MaxL=1.
 Leave Link  303 at Tue Jun  4 18:41:40 2019, MaxMem=   268435456 cpu:               1.2 elap:               0.2
 (Enter /home/apps/g16/g16/l401.exe)
 ExpMin= 5.00D-02 ExpMax= 5.48D+03 ExpMxC= 8.25D+02 IAcc=3 IRadAn=         5 AccDes= 0.00D+00
 Harris functional with IExCor=  402 and IRadAn=       5 diagonalized for initial guess.
 HarFok:  IExCor=  402 AccDes= 0.00D+00 IRadAn=         5 IDoV= 1 UseB2=F ITyADJ=14
 ICtDFT=  3500011 ScaDFX=  1.000000  1.000000  1.000000  1.000000
 FoFCou: FMM=F IPFlag=           0 FMFlag=      100000 FMFlg1=           0
         NFxFlg=           0 DoJE=T BraDBF=F KetDBF=T FulRan=T
         wScrn=  0.000000 ICntrl=       500 IOpCl=  0 I1Cent=   200000004 NGrid=           0
         NMat0=    1 NMatS0=      1 NMatT0=    0 NMatD0=    1 NMtDS0=    0 NMtDT0=    0
 Petite list used in FoFCou.
 Harris En= -922.549082850376    
 JPrj=0 DoOrth=F DoCkMO=F.
 Leave Link  401 at Tue Jun  4 18:41:55 2019, MaxMem=   268435456 cpu:             123.5 elap:              15.5
 (Enter /home/apps/g16/g16/l502.exe)
 Integral symmetry usage will be decided dynamically.
 Closed shell SCF:
 Using DIIS extrapolation, IDIIS=  1040.
 NGot=   268435456 LenX=   267912291 LenY=   267654735
 Requested convergence on RMS density matrix=1.00D-08 within 128 cycles.
 Requested convergence on MAX density matrix=1.00D-06.
 Requested convergence on             energy=1.00D-06.
 No special actions if energy rises.
 Fock matrices will be formed incrementally for  20 cycles.

 Cycle   1  Pass 1  IDiag  1:
 FoFJK:  IHMeth= 1 ICntrl=       0 DoSepK=F KAlg= 0 I1Cent=           0 FoldK=F
 IRaf= 730000000 NMat=       1 IRICut=       1 DoRegI=T DoRafI=F ISym2E= 0 IDoP0=0 IntGTp=1.
 FoFCou: FMM=F IPFlag=           0 FMFlag=      100000 FMFlg1=           0
         NFxFlg=           0 DoJE=F BraDBF=F KetDBF=F FulRan=T
         wScrn=  0.000000 ICntrl=         0 IOpCl=  0 I1Cent=           0 NGrid=           0
         NMat0=    1 NMatS0=      1 NMatT0=    0 NMatD0=    1 NMtDS0=    0 NMtDT0=    0
 Symmetry not used in FoFCou.
 Inv3:  Mode=1 IEnd=    28607232.
 Iteration    1 A*A^-1 deviation from unit magnitude is 1.10D-14 for   1713.
 Iteration    1 A*A^-1 deviation from orthogonality  is 3.83D-15 for   1735    151.
 Iteration    1 A^-1*A deviation from unit magnitude is 1.10D-14 for   1713.
 Iteration    1 A^-1*A deviation from orthogonality  is 2.23D-15 for   2037   1236.
 E= -922.039403098061    
 DIIS: error= 1.94D-02 at cycle   1 NSaved=   1.
 NSaved= 1 IEnMin= 1 EnMin= -922.039403098061     IErMin= 1 ErrMin= 1.94D-02
 ErrMax= 1.94D-02  0.00D+00 EMaxC= 1.00D-01 BMatC= 4.57D-01 BMatP= 4.57D-01
 IDIUse=3 WtCom= 8.06D-01 WtEn= 1.94D-01
 Coeff-Com:  0.100D+01
 Coeff-En:   0.100D+01
 Coeff:      0.100D+01
 Gap=     0.229 Goal=   None    Shift=    0.000
 GapD=    0.229 DampG=1.000 DampE=0.500 DampFc=0.5000 IDamp=-1.
 Damping current iteration by 5.00D-01
 RMSDP=3.34D-03 MaxDP=1.03D-01              OVMax= 2.12D-01

 Cycle   2  Pass 1  IDiag  1:
 RMSU=  1.64D-03    CP:  9.74D-01
 E= -922.253826658583     Delta-E=       -0.214423560521 Rises=F Damp=T
 DIIS: error= 3.59D-03 at cycle   2 NSaved=   2.
 NSaved= 2 IEnMin= 2 EnMin= -922.253826658583     IErMin= 2 ErrMin= 3.59D-03
 ErrMax= 3.59D-03  0.00D+00 EMaxC= 1.00D-01 BMatC= 2.28D-02 BMatP= 4.57D-01
 IDIUse=3 WtCom= 9.64D-01 WtEn= 3.59D-02
 Coeff-Com:  0.586D-01 0.941D+00
 Coeff-En:   0.118D+00 0.882D+00
 Coeff:      0.608D-01 0.939D+00
 Gap=     0.255 Goal=   None    Shift=    0.000
 RMSDP=1.08D-03 MaxDP=3.17D-02 DE=-2.14D-01 OVMax= 1.46D-01

 Cycle   3  Pass 1  IDiag  1:
 RMSU=  1.04D-03    CP:  9.62D-01  8.75D-01
 E= -922.514673628070     Delta-E=       -0.260846969487 Rises=F Damp=F
 DIIS: error= 4.16D-03 at cycle   3 NSaved=   3.
 NSaved= 3 IEnMin= 3 EnMin= -922.514673628070     IErMin= 2 ErrMin= 3.59D-03
 ErrMax= 4.16D-03  0.00D+00 EMaxC= 1.00D-01 BMatC= 1.51D-02 BMatP= 2.28D-02
 IDIUse=3 WtCom= 9.58D-01 WtEn= 4.16D-02
 Coeff-Com: -0.149D-01 0.436D+00 0.579D+00
 Coeff-En:   0.000D+00 0.000D+00 0.100D+01
 Coeff:     -0.143D-01 0.418D+00 0.596D+00
 Gap=     0.213 Goal=   None    Shift=    0.000
 RMSDP=4.40D-04 MaxDP=2.23D-02 DE=-2.61D-01 OVMax= 5.31D-02

 Cycle   4  Pass 1  IDiag  1:
 RMSU=  3.61D-04    CP:  9.62D-01  9.41D-01  7.83D-01
 E= -922.525155910623     Delta-E=       -0.010482282552 Rises=F Damp=F
 DIIS: error= 2.79D-03 at cycle   4 NSaved=   4.
 NSaved= 4 IEnMin= 4 EnMin= -922.525155910623     IErMin= 4 ErrMin= 2.79D-03
 ErrMax= 2.79D-03  0.00D+00 EMaxC= 1.00D-01 BMatC= 5.69D-03 BMatP= 1.51D-02
 IDIUse=3 WtCom= 9.72D-01 WtEn= 2.79D-02
 Coeff-Com: -0.209D-01 0.124D+00 0.396D+00 0.501D+00
 Coeff-En:   0.000D+00 0.000D+00 0.308D+00 0.692D+00
 Coeff:     -0.203D-01 0.121D+00 0.393D+00 0.507D+00
 Gap=     0.210 Goal=   None    Shift=    0.000
 RMSDP=2.00D-04 MaxDP=7.48D-03 DE=-1.05D-02 OVMax= 2.17D-02

 Cycle   5  Pass 1  IDiag  1:
 RMSU=  8.78D-05    CP:  9.62D-01  9.34D-01  8.06D-01  5.08D-01
 E= -922.531636716827     Delta-E=       -0.006480806205 Rises=F Damp=F
 DIIS: error= 2.37D-04 at cycle   5 NSaved=   5.
 NSaved= 5 IEnMin= 5 EnMin= -922.531636716827     IErMin= 5 ErrMin= 2.37D-04
 ErrMax= 2.37D-04  0.00D+00 EMaxC= 1.00D-01 BMatC= 6.80D-05 BMatP= 5.69D-03
 IDIUse=3 WtCom= 9.98D-01 WtEn= 2.37D-03
 Coeff-Com: -0.634D-02 0.117D-01 0.830D-01 0.164D+00 0.747D+00
 Coeff-En:   0.000D+00 0.000D+00 0.000D+00 0.000D+00 0.100D+01
 Coeff:     -0.632D-02 0.117D-01 0.828D-01 0.164D+00 0.748D+00
 Gap=     0.210 Goal=   None    Shift=    0.000
 RMSDP=2.48D-05 MaxDP=1.23D-03 DE=-6.48D-03 OVMax= 2.41D-03

 Cycle   6  Pass 1  IDiag  1:
 RMSU=  1.68D-05    CP:  9.62D-01  9.38D-01  8.07D-01  5.44D-01  8.73D-01
 E= -922.531699199196     Delta-E=       -0.000062482369 Rises=F Damp=F
 DIIS: error= 7.41D-05 at cycle   6 NSaved=   6.
 NSaved= 6 IEnMin= 6 EnMin= -922.531699199196     IErMin= 6 ErrMin= 7.41D-05
 ErrMax= 7.41D-05  0.00D+00 EMaxC= 1.00D-01 BMatC= 1.26D-05 BMatP= 6.80D-05
 IDIUse=1 WtCom= 1.00D+00 WtEn= 0.00D+00
 Coeff-Com: -0.302D-02 0.312D-02 0.345D-01 0.757D-01 0.420D+00 0.470D+00
 Coeff:     -0.302D-02 0.312D-02 0.345D-01 0.757D-01 0.420D+00 0.470D+00
 Gap=     0.210 Goal=   None    Shift=    0.000
 RMSDP=8.75D-06 MaxDP=4.40D-04 DE=-6.25D-05 OVMax= 5.48D-04

 Cycle   7  Pass 1  IDiag  1:
 RMSU=  4.98D-06    CP:  9.62D-01  9.38D-01  8.10D-01  5.44D-01  8.57D-01
                    CP:  6.29D-01
 E= -922.531710667023     Delta-E=       -0.000011467827 Rises=F Damp=F
 DIIS: error= 1.16D-05 at cycle   7 NSaved=   7.
 NSaved= 7 IEnMin= 7 EnMin= -922.531710667023     IErMin= 7 ErrMin= 1.16D-05
 ErrMax= 1.16D-05  0.00D+00 EMaxC= 1.00D-01 BMatC= 2.51D-07 BMatP= 1.26D-05
 IDIUse=1 WtCom= 1.00D+00 WtEn= 0.00D+00
 Coeff-Com: -0.538D-03-0.391D-04 0.593D-02 0.144D-01 0.952D-01 0.167D+00
 Coeff-Com:  0.718D+00
 Coeff:     -0.538D-03-0.391D-04 0.593D-02 0.144D-01 0.952D-01 0.167D+00
 Coeff:      0.718D+00
 Gap=     0.210 Goal=   None    Shift=    0.000
 RMSDP=1.59D-06 MaxDP=9.07D-05 DE=-1.15D-05 OVMax= 2.44D-04

 Cycle   8  Pass 1  IDiag  1:
 RMSU=  1.36D-06    CP:  9.62D-01  9.38D-01  8.10D-01  5.44D-01  8.61D-01
                    CP:  6.55D-01  8.83D-01
 E= -922.531710814556     Delta-E=       -0.000000147533 Rises=F Damp=F
 DIIS: error= 9.60D-06 at cycle   8 NSaved=   8.
 NSaved= 8 IEnMin= 8 EnMin= -922.531710814556     IErMin= 8 ErrMin= 9.60D-06
 ErrMax= 9.60D-06  0.00D+00 EMaxC= 1.00D-01 BMatC= 8.85D-08 BMatP= 2.51D-07
 IDIUse=1 WtCom= 1.00D+00 WtEn= 0.00D+00
 Coeff-Com: -0.101D-03-0.292D-03 0.104D-02 0.318D-02 0.276D-01 0.675D-01
 Coeff-Com:  0.442D+00 0.459D+00
 Coeff:     -0.101D-03-0.292D-03 0.104D-02 0.318D-02 0.276D-01 0.675D-01
 Coeff:      0.442D+00 0.459D+00
 Gap=     0.210 Goal=   None    Shift=    0.000
 RMSDP=6.96D-07 MaxDP=3.86D-05 DE=-1.48D-07 OVMax= 1.15D-04

 Cycle   9  Pass 1  IDiag  1:
 RMSU=  3.84D-07    CP:  9.62D-01  9.38D-01  8.10D-01  5.44D-01  8.62D-01
                    CP:  6.53D-01  9.20D-01  6.01D-01
 E= -922.531710904573     Delta-E=       -0.000000090016 Rises=F Damp=F
 DIIS: error= 1.34D-06 at cycle   9 NSaved=   9.
 NSaved= 9 IEnMin= 9 EnMin= -922.531710904573     IErMin= 9 ErrMin= 1.34D-06
 ErrMax= 1.34D-06  0.00D+00 EMaxC= 1.00D-01 BMatC= 2.50D-09 BMatP= 8.85D-08
 IDIUse=1 WtCom= 1.00D+00 WtEn= 0.00D+00
 Coeff-Com:  0.231D-04-0.100D-03-0.245D-03-0.355D-03 0.229D-03 0.755D-02
 Coeff-Com:  0.920D-01 0.179D+00 0.722D+00
 Coeff:      0.231D-04-0.100D-03-0.245D-03-0.355D-03 0.229D-03 0.755D-02
 Coeff:      0.920D-01 0.179D+00 0.722D+00
 Gap=     0.210 Goal=   None    Shift=    0.000
 RMSDP=1.72D-07 MaxDP=7.51D-06 DE=-9.00D-08 OVMax= 1.77D-05

 Cycle  10  Pass 1  IDiag  1:
 RMSU=  1.11D-07    CP:  9.62D-01  9.38D-01  8.10D-01  5.44D-01  8.62D-01
                    CP:  6.55D-01  9.30D-01  6.59D-01  8.04D-01
 E= -922.531710906834     Delta-E=       -0.000000002262 Rises=F Damp=F
 DIIS: error= 7.35D-07 at cycle  10 NSaved=  10.
 NSaved=10 IEnMin=10 EnMin= -922.531710906834     IErMin=10 ErrMin= 7.35D-07
 ErrMax= 7.35D-07  0.00D+00 EMaxC= 1.00D-01 BMatC= 4.11D-10 BMatP= 2.50D-09
 IDIUse=1 WtCom= 1.00D+00 WtEn= 0.00D+00
 Coeff-Com:  0.144D-04-0.332D-04-0.137D-03-0.277D-03-0.793D-03 0.108D-02
 Coeff-Com:  0.249D-01 0.630D-01 0.370D+00 0.542D+00
 Coeff:      0.144D-04-0.332D-04-0.137D-03-0.277D-03-0.793D-03 0.108D-02
 Coeff:      0.249D-01 0.630D-01 0.370D+00 0.542D+00
 Gap=     0.210 Goal=   None    Shift=    0.000
 RMSDP=5.70D-08 MaxDP=3.53D-06 DE=-2.26D-09 OVMax= 7.79D-06

 Cycle  11  Pass 1  IDiag  1:
 RMSU=  4.34D-08    CP:  9.62D-01  9.38D-01  8.10D-01  5.44D-01  8.62D-01
                    CP:  6.55D-01  9.31D-01  6.53D-01  8.44D-01  7.36D-01
 E= -922.531710907133     Delta-E=       -0.000000000298 Rises=F Damp=F
 DIIS: error= 1.71D-07 at cycle  11 NSaved=  11.
 NSaved=11 IEnMin=11 EnMin= -922.531710907133     IErMin=11 ErrMin= 1.71D-07
 ErrMax= 1.71D-07  0.00D+00 EMaxC= 1.00D-01 BMatC= 6.16D-11 BMatP= 4.11D-10
 IDIUse=1 WtCom= 1.00D+00 WtEn= 0.00D+00
 Coeff-Com:  0.497D-05-0.192D-05-0.439D-04-0.127D-03-0.638D-03-0.919D-03
 Coeff-Com: -0.347D-02 0.592D-03 0.808D-01 0.311D+00 0.613D+00
 Coeff:      0.497D-05-0.192D-05-0.439D-04-0.127D-03-0.638D-03-0.919D-03
 Coeff:     -0.347D-02 0.592D-03 0.808D-01 0.311D+00 0.613D+00
 Gap=     0.210 Goal=   None    Shift=    0.000
 RMSDP=2.08D-08 MaxDP=9.90D-07 DE=-2.98D-10 OVMax= 2.08D-06

 Cycle  12  Pass 1  IDiag  1:
 RMSU=  1.23D-08    CP:  9.62D-01  9.38D-01  8.10D-01  5.44D-01  8.62D-01
                    CP:  6.55D-01  9.32D-01  6.56D-01  8.57D-01  7.88D-01
                    CP:  7.39D-01
 E= -922.531710907308     Delta-E=       -0.000000000175 Rises=F Damp=F
 DIIS: error= 2.78D-08 at cycle  12 NSaved=  12.
 NSaved=12 IEnMin=12 EnMin= -922.531710907308     IErMin=12 ErrMin= 2.78D-08
 ErrMax= 2.78D-08  0.00D+00 EMaxC= 1.00D-01 BMatC= 2.00D-12 BMatP= 6.16D-11
 IDIUse=1 WtCom= 1.00D+00 WtEn= 0.00D+00
 Coeff-Com:  0.137D-05 0.873D-06-0.106D-04-0.394D-04-0.233D-03-0.450D-03
 Coeff-Com: -0.304D-02-0.410D-02 0.123D-01 0.106D+00 0.251D+00 0.638D+00
 Coeff:      0.137D-05 0.873D-06-0.106D-04-0.394D-04-0.233D-03-0.450D-03
 Coeff:     -0.304D-02-0.410D-02 0.123D-01 0.106D+00 0.251D+00 0.638D+00
 Gap=     0.210 Goal=   None    Shift=    0.000
 RMSDP=4.97D-09 MaxDP=1.73D-07 DE=-1.75D-10 OVMax= 4.51D-07

 Error on total polarization charges =  0.01614
 SCF Done:  E(RB3LYP) =  -922.531710907     A.U. after   12 cycles
            NFock= 12  Conv=0.50D-08     -V/T= 2.0047
 KE= 9.182541579654D+02 PE=-5.194172759801D+03 EE= 1.830390806447D+03
 Leave Link  502 at Tue Jun  4 18:54:50 2019, MaxMem=   268435456 cpu:            6170.1 elap:             774.9
 (Enter /home/apps/g16/g16/l601.exe)
 Copying SCF densities to generalized density rwf, IOpCl= 0 IROHF=0.

 **********************************************************************

            Population analysis using the SCF density.

 **********************************************************************

 Orbital symmetries:
       Occupied  (A) (A) (A) (A) (A) (A) (A) (A) (A) (A) (A) (A)
                 (A) (A) (A) (A) (A) (A) (A) (A) (A) (A) (A) (A)
                 (A) (A) (A) (A) (A) (A) (A) (A) (A) (A) (A) (A)
                 (A) (A) (A) (A) (A) (A) (A) (A) (A) (A) (A) (A)
                 (A) (A) (A) (A) (A) (A) (A) (A) (A) (A) (A) (A)
                 (A) (A) (A) (A) (A) (A) (A) (A) (A) (A) (A) (A)
                 (A) (A) (A)
       Virtual   (A) (A) (A) (A) (A) (A) (A) (A) (A) (A) (A) (A)
                 (A) (A) (A) (A) (A) (A) (A) (A) (A) (A) (A) (A)
                 (A) (A) (A) (A) (A) (A) (A) (A) (A) (A) (A) (A)
                 (A) (A) (A) (A) (A) (A) (A) (A) (A) (A) (A) (A)
                 (A) (A) (A) (A) (A) (A) (A) (A) (A) (A) (A) (A)
                 (A) (A) (A) (A) (A) (A) (A) (A) (A) (A) (A) (A)
                 (A) (A) (A) (A) (A) (A) (A) (A) (A) (A) (A) (A)
                 (A) (A) (A) (A) (A) (A) (A) (A) (A) (A) (A) (A)
                 (A) (A) (A) (A) (A) (A) (A) (A) (A) (A) (A) (A)
                 (A) (A) (A) (A) (A) (A) (A) (A) (A) (A) (A) (A)
                 (A) (A) (A) (A) (A) (A) (A) (A) (A) (A) (A) (A)
                 (A) (A) (A) (A) (A) (A) (A) (A) (A) (A) (A) (A)
                 (A) (A) (A) (A) (A) (A) (A) (A) (A) (A) (A) (A)
                 (A) (A) (A) (A) (A) (A) (A) (A) (A) (A) (A) (A)
                 (A) (A) (A) (A) (A) (A) (A) (A) (A) (A) (A) (A)
                 (A) (A) (A) (A) (A) (A) (A) (A) (A) (A) (A) (A)
                 (A) (A) (A) (A) (A) (A) (A) (A) (A) (A) (A) (A)
                 (A) (A) (A) (A) (A) (A) (A) (A) (A) (A) (A) (A)
                 (A) (A) (A) (A) (A) (A) (A) (A) (A) (A) (A) (A)
                 (A) (A) (A) (A) (A) (A) (A) (A) (A) (A) (A) (A)
                 (A) (A) (A) (A) (A) (A) (A) (A) (A) (A) (A) (A)
                 (A) (A) (A) (A) (A) (A) (A) (A) (A) (A) (A) (A)
                 (A) (A) (A) (A) (A) (A) (A) (A) (A) (A) (A) (A)
                 (A) (A) (A) (A) (A) (A) (A) (A) (A) (A) (A) (A)
                 (A) (A) (A) (A) (A) (A) (A) (A) (A) (A) (A) (A)
                 (A) (A) (A) (A) (A) (A) (A) (A) (A) (A) (A) (A)
                 (A) (A) (A) (A) (A) (A) (A) (A) (A) (A) (A) (A)
                 (A) (A) (A) (A) (A) (A) (A) (A) (A) (A) (A) (A)
                 (A) (A) (A) (A) (A) (A) (A) (A) (A) (A) (A) (A)
                 (A) (A) (A) (A) (A) (A) (A) (A) (A) (A) (A) (A)
                 (A) (A) (A) (A) (A) (A) (A) (A) (A) (A) (A) (A)
                 (A) (A) (A) (A) (A) (A) (A) (A) (A) (A) (A) (A)
                 (A) (A) (A) (A) (A) (A) (A) (A) (A) (A) (A) (A)
                 (A) (A) (A) (A) (A) (A) (A) (A) (A) (A) (A) (A)
 The electronic state is 1-A.
 Alpha  occ. eigenvalues --  -19.19419 -19.18947 -19.18796 -10.25588 -10.25489
 Alpha  occ. eigenvalues --  -10.25489 -10.19743 -10.19723 -10.19645 -10.19629
 Alpha  occ. eigenvalues --  -10.19609 -10.19587 -10.19291 -10.19271 -10.19232
 Alpha  occ. eigenvalues --  -10.19153 -10.19150 -10.19044 -10.18927 -10.18846
 Alpha  occ. eigenvalues --  -10.18802  -1.08297  -1.06962  -1.06713  -0.86059
 Alpha  occ. eigenvalues --   -0.85922  -0.85886  -0.75859  -0.75810  -0.75775
 Alpha  occ. eigenvalues --   -0.75045  -0.74678  -0.74657  -0.63699  -0.63335
 Alpha  occ. eigenvalues --   -0.63187  -0.61454  -0.61089  -0.61040  -0.55768
 Alpha  occ. eigenvalues --   -0.55275  -0.55142  -0.50925  -0.50759  -0.50609
 Alpha  occ. eigenvalues --   -0.47656  -0.47566  -0.47501  -0.44750  -0.44710
 Alpha  occ. eigenvalues --   -0.44659  -0.43605  -0.43305  -0.43106  -0.42744
 Alpha  occ. eigenvalues --   -0.42490  -0.42262  -0.40652  -0.40105  -0.39414
 Alpha  occ. eigenvalues --   -0.37189  -0.36925  -0.36868  -0.35454  -0.35228
 Alpha  occ. eigenvalues --   -0.35145  -0.34667  -0.34517  -0.34275  -0.26667
 Alpha  occ. eigenvalues --   -0.26387  -0.26253  -0.24175  -0.23728  -0.23679
 Alpha virt. eigenvalues --   -0.02688  -0.02224  -0.01965  -0.01029  -0.00884
 Alpha virt. eigenvalues --   -0.00816   0.01601   0.02062   0.02499   0.02811
 Alpha virt. eigenvalues --    0.03193   0.03896   0.04335   0.04995   0.05221
 Alpha virt. eigenvalues --    0.05414   0.05883   0.06152   0.07051   0.07250
 Alpha virt. eigenvalues --    0.07610   0.07745   0.08602   0.09060   0.09660
 Alpha virt. eigenvalues --    0.09870   0.10132   0.10361   0.10590   0.11717
 Alpha virt. eigenvalues --    0.11854   0.12087   0.12466   0.12716   0.13136
 Alpha virt. eigenvalues --    0.13316   0.13556   0.13790   0.14156   0.14390
 Alpha virt. eigenvalues --    0.14724   0.14849   0.15222   0.15455   0.15795
 Alpha virt. eigenvalues --    0.15997   0.16261   0.16984   0.17345   0.17509
 Alpha virt. eigenvalues --    0.17906   0.18276   0.18938   0.19058   0.19235
 Alpha virt. eigenvalues --    0.20268   0.20317   0.21043   0.21694   0.22052
 Alpha virt. eigenvalues --    0.22208   0.22432   0.22742   0.22959   0.23965
 Alpha virt. eigenvalues --    0.24049   0.24314   0.24450   0.25126   0.25252
 Alpha virt. eigenvalues --    0.25691   0.25865   0.26554   0.26661   0.27005
 Alpha virt. eigenvalues --    0.27276   0.27626   0.27947   0.28360   0.28764
 Alpha virt. eigenvalues --    0.28854   0.29346   0.29637   0.30086   0.30789
 Alpha virt. eigenvalues --    0.30820   0.30912   0.31698   0.32125   0.32960
 Alpha virt. eigenvalues --    0.33179   0.34811   0.35580   0.36123   0.36432
 Alpha virt. eigenvalues --    0.36726   0.36806   0.37107   0.37218   0.37906
 Alpha virt. eigenvalues --    0.38219   0.39143   0.39355   0.40037   0.40357
 Alpha virt. eigenvalues --    0.41620   0.46506   0.47847   0.48690   0.51736
 Alpha virt. eigenvalues --    0.53071   0.54027   0.55448   0.56823   0.57222
 Alpha virt. eigenvalues --    0.58506   0.59218   0.59536   0.59711   0.60013
 Alpha virt. eigenvalues --    0.60775   0.61451   0.62335   0.65141   0.66308
 Alpha virt. eigenvalues --    0.67598   0.68194   0.68562   0.69153   0.69317
 Alpha virt. eigenvalues --    0.69742   0.70708   0.71780   0.72003   0.73024
 Alpha virt. eigenvalues --    0.73368   0.74010   0.74681   0.74839   0.75246
 Alpha virt. eigenvalues --    0.75663   0.75796   0.76066   0.76207   0.76700
 Alpha virt. eigenvalues --    0.77303   0.77561   0.77824   0.78376   0.79239
 Alpha virt. eigenvalues --    0.79543   0.80295   0.80678   0.80898   0.81720
 Alpha virt. eigenvalues --    0.81955   0.83135   0.83990   0.84963   0.85738
 Alpha virt. eigenvalues --    0.86027   0.87263   0.87439   0.87775   0.88328
 Alpha virt. eigenvalues --    0.88919   0.90812   0.91238   0.91625   0.91999
 Alpha virt. eigenvalues --    0.92576   0.93474   0.93732   0.94022   0.94578
 Alpha virt. eigenvalues --    0.95254   0.95751   0.96089   0.96560   0.97184
 Alpha virt. eigenvalues --    0.97508   0.98446   0.98663   0.99422   0.99867
 Alpha virt. eigenvalues --    1.00288   1.01169   1.01396   1.01579   1.04287
 Alpha virt. eigenvalues --    1.04806   1.06132   1.06743   1.07691   1.09262
 Alpha virt. eigenvalues --    1.10772   1.11502   1.11916   1.12512   1.13816
 Alpha virt. eigenvalues --    1.14752   1.16378   1.16774   1.17132   1.18018
 Alpha virt. eigenvalues --    1.18772   1.19964   1.20162   1.20431   1.21122
 Alpha virt. eigenvalues --    1.21357   1.22213   1.22964   1.25252   1.26558
 Alpha virt. eigenvalues --    1.26776   1.27123   1.27496   1.27722   1.27873
 Alpha virt. eigenvalues --    1.29262   1.29964   1.31594   1.35761   1.36661
 Alpha virt. eigenvalues --    1.38051   1.39508   1.40578   1.41410   1.42231
 Alpha virt. eigenvalues --    1.42614   1.45669   1.47544   1.48710   1.58265
 Alpha virt. eigenvalues --    1.60476   1.60649   1.61843   1.62305   1.63932
 Alpha virt. eigenvalues --    1.66870   1.67725   1.68860   1.69379   1.69625
 Alpha virt. eigenvalues --    1.71623   1.72189   1.72478   1.72871   1.73553
 Alpha virt. eigenvalues --    1.74028   1.74815   1.75295   1.75544   1.76373
 Alpha virt. eigenvalues --    1.76546   1.77408   1.77622   1.77944   1.78149
 Alpha virt. eigenvalues --    1.78637   1.80771   1.81033   1.81358   1.81552
 Alpha virt. eigenvalues --    1.82259   1.82518   1.83777   1.84653   1.85341
[...]
 21809,-0.00002162,-0.00139607,0.00035242,0.00038225,0.00856292,0.00316
 885,-0.00383884,-0.00172687,-0.00136428,0.00118635,-0.00012132,-0.0001
 5995,0.00008612,-0.00007928,-0.00006397,0.00000602,-0.00023108,-0.0000
 7010,0.00006005,-0.00001521,0.00017518,-0.00014060,0.00014358,-0.00049
 615,-0.00007736,-0.00467620,-0.01826601,0.00334091,0.00244179,0.011566
 96,0.00315618,-0.00009379,0.00017486,-0.00001459,0.00036368,0.00001574
 ,-0.00000995,-0.00027588,0.00007369,-0.00004658,0.00084927,-0.00043931
 ,-0.00031800,-0.00477020,-0.00060864,0.00142810,0.00086741,0.00010946,
 -0.00012702,0.00010607,0.00003219,0.00002146,0.00005451,0.00000580,0.0
 0002032,0.00006406,-0.00003135,-0.00003112,-0.00000602,0.00000091,0.00
 012784,0.04981244,-0.05861533,-0.03223325,0.00648049,0.00622330,-0.005
 01961,0.00207500,0.00684663,0.00094552,0.00122281,-0.00131290,-0.00242
 398,-0.00027994,0.00500734,0.00304738,0.02065174,0.00022197,-0.0066964
 5,-0.00175609,-0.00344355,0.00015950,0.00017238,-0.00016572,-0.0002147
 6,-0.00017851,-0.00085854,-0.00012738,0.00058833,-0.00007000,-0.000176
 05,-0.00160964,-0.00290240,-0.00016239,-0.14526659,0.08134224,0.000176
 98,-0.00006653,-0.00000984,-0.00020976,-0.00007834,0.00011753,0.000133
 41,-0.00000157,0.00001635,-0.00068764,0.00031159,0.00011418,0.00247072
 ,0.00087749,-0.00093772,-0.00053436,-0.00036666,0.00033270,-0.00004442
 ,-0.00004909,0.00002184,-0.00002234,-0.00003662,-0.00000058,-0.0001077
 7,-0.00005090,-0.00001072,-0.00000027,0.00004537,-0.00004965,0.0002514
 2,-0.00041382,-0.00006491,-0.00104327,-0.00340486,0.00320197,0.0003191
 5,0.00612319,-0.00285791,0.00002568,-0.00002548,0.00011587,-0.00020646
 ,-0.00001794,-0.00000382,0.00008215,0.00002780,0.00023220,-0.00080595,
 0.00003908,0.00012351,0.00228762,0.00145992,-0.00107424,-0.00028146,-0
 .00022731,0.00000166,-0.00002864,-0.00000188,-0.00001942,-0.00001242,0
 .00002202,-0.00003106,-0.00006765,0.00002796,-0.00000133,0.00004933,0.
 00005545,-0.00012804,0.05134454,-0.02107119,-0.15654481,0.04972462,-0.
 01645357,-0.02699448,-0.01006346,0.00319989,-0.00467741,0.00487555,-0.
 00162647,0.00381748,-0.00094461,0.00092633,-0.00804383,-0.01723341,0.0
 0565315,0.01993144,-0.00016548,-0.00006263,0.00304568,0.00181450,-0.00
 042193,-0.00096026,0.00028061,-0.00012146,0.00030333,-0.00086110,0.000
 21611,0.00058375,0.00036321,-0.00018701,0.00140939,0.10177012,-0.01322
 251,0.40271057,0.00001664,0.00010679,-0.00008122,-0.00002172,0.0000865
 1,-0.00004493,-0.00014849,0.00001056,0.00009535,0.00019597,-0.00016552
 ,0.00014356,-0.00064495,-0.00017917,0.00011934,0.00020258,0.00000471,-
 0.00010302,0.00001698,0.00004036,-0.00001734,0.00000310,0.00002460,-0.
 00001727,-0.00001831,-0.00002715,-0.00000422,-0.00003303,0.00006707,0.
 00002314,-0.00012726,-0.00003855,-0.00011602,-0.00096568,0.00180209,-0
 .00088123,-0.00012825,-0.00423374,-0.00120881,-0.00046309,-0.00003002,
 0.00016021,0.00072785,-0.00006563,-0.00010640,-0.00036686,-0.00004106,
 -0.00013843,0.00170168,-0.00047333,-0.00039435,-0.01142648,0.00122703,
 0.00014170,0.00137574,0.00048022,0.00020131,0.00014529,0.00007215,0.00
 001478,0.00009723,-0.00001561,-0.00001091,0.00015300,-0.00008371,-0.00
 005228,-0.00013704,-0.00009707,-0.00019933,-0.03594139,0.00870084,-0.0
 1680847,0.00452100,-0.00146783,-0.00263917,-0.00117494,0.00038745,-0.0
 0062916,0.00109514,-0.00033795,0.00003961,-0.00015429,0.00079380,-0.00
 117179,-0.00035736,0.00063633,0.00373068,0.00026761,-0.00027091,0.0013
 1364,0.00037686,-0.00009174,-0.00033714,0.00012621,-0.00010421,0.00000
 499,-0.00005064,-0.00006280,0.00019765,-0.00003481,-0.00024323,0.00001
 719,-0.25523729,0.05926562,-0.17430724,0.28804527,-0.00016940,-0.00007
 339,0.00005933,0.00018423,0.00006160,-0.00007709,0.00002258,-0.0001074
 3,0.00002565,0.00039458,0.00025693,-0.00024787,-0.00220640,-0.00145627
 ,0.00135450,0.00030336,0.00041997,-0.00026062,0.00001936,0.00003209,-0
 .00002272,0.00002605,0.00000877,-0.00000563,0.00007855,0.00002717,-0.0
 0002012,0.00000803,-0.00007878,0.00001379,-0.00000306,0.00011936,0.000
 00080,0.00290036,0.00207381,0.00049458,-0.00364893,-0.00130873,-0.0033
 0791,0.00020811,-0.00026636,-0.00001511,-0.00069856,0.00000948,0.00002
 555,0.00042418,0.00000172,0.00013894,-0.00179289,0.00063066,0.00052227
 ,0.00979516,0.00103705,-0.00187488,-0.00163914,-0.00030433,0.00019001,
 -0.00016253,-0.00004358,-0.00003167,-0.00006792,-0.00000863,-0.0000240
 8,-0.00014215,0.00006059,0.00004296,0.00000870,-0.00002533,-0.00026222
 ,0.01361478,-0.00682818,0.00482374,-0.00131561,0.00010819,0.00100590,0
 .00005388,-0.00066387,0.00003886,-0.00044968,0.00016493,0.00037701,0.0
 0100763,0.00124820,0.00016386,0.00021705,0.00188940,-0.00126278,-0.000
 12732,0.00055588,-0.00026665,-0.00011149,0.00003589,0.00011689,-0.0000
 7214,-0.00004573,0.00000407,-0.00003080,-0.00015474,-0.00008546,-0.000
 14352,-0.00051817,-0.00002224,0.05355374,-0.02549014,0.03535022,-0.060
 33605,0.03500887,-0.00001629,0.00006273,-0.00006624,0.00000191,0.00003
 256,-0.00001708,-0.00003723,0.00000022,0.00001283,0.00008876,-0.000093
 75,0.00004362,-0.00035138,0.00007850,0.00013775,0.00014844,0.00002802,
 -0.00010112,0.00001417,0.00002376,-0.00000330,0.00000164,0.00001179,-0
 .00000046,-0.00000939,-0.00000935,0.00000273,-0.00001616,0.00004425,0.
 00003532,-0.00003037,-0.00006410,-0.00001876,-0.00033338,0.00080513,-0
 .00123172,-0.00144010,-0.00273069,-0.00001762,-0.00020654,0.00002843,-
 0.00003962,0.00059742,-0.00001509,-0.00003739,-0.00024900,-0.00012640,
 -0.00037438,0.00207866,-0.00034587,-0.00038336,-0.00753678,-0.00217551
 ,0.00137860,0.00107070,0.00058695,0.00014009,0.00011936,0.00003960,0.0
 0003333,0.00007020,-0.00002703,0.00001928,0.00017163,-0.00007204,-0.00
 003187,-0.00016651,-0.00012756,0.00002563,0.01737403,-0.00347817,0.019
 51115,0.00413112,-0.00145327,0.00078988,-0.00022714,0.00012410,-0.0007
 5796,0.00029121,0.00000122,-0.00057132,0.00005410,-0.00018659,0.001348
 40,0.00565576,-0.00169780,-0.00277174,-0.00009050,0.00007117,-0.001860
 28,0.00008146,-0.00004339,-0.00009349,-0.00008486,0.00000538,-0.000099
 42,0.00037383,-0.00011611,-0.00014191,0.00001802,-0.00001161,0.0001407
 7,-0.21733878,0.04674930,-0.23146379,0.18738317,-0.03530173,0.21665406
 ,-0.00000057,-0.00000892,0.00000971,0.00002800,0.00001409,-0.00000992,
 0.00000294,-0.00000591,0.00000710,0.00006400,0.00003118,-0.00000782,-0
 .00026185,-0.00020560,0.00009117,0.00004617,0.00006533,-0.00002594,0.0
 0000719,0.00000861,-0.00000521,0.00000459,-0.00000014,-0.00000468,0.00
 000606,0.00000149,-0.00000478,-0.00002320,-0.00003297,0.00001668,-0.00
 000519,0.00000224,-0.00000430,-0.00011108,-0.00005172,-0.00014678,0.00
 006972,0.00007701,-0.00008533,-0.00067230,0.00064568,0.00033440,-0.004
 84280,0.00160890,0.00176700,-0.01235475,-0.02369514,-0.01185792,-0.152
 65604,-0.12005030,-0.05643735,0.00861845,0.01060737,0.00540694,-0.0003
 8349,0.00245063,0.00172567,0.00005360,-0.00007792,-0.00010214,-0.00072
 907,-0.00117763,-0.00053666,0.00081377,0.00037146,-0.00015372,0.000474
 37,0.00055987,0.00025604,-0.00006192,0.00002041,0.00003090,0.00000895,
 -0.00000829,-0.00001742,-0.00000486,-0.00000018,0.00000754,0.00000682,
 -0.00000132,-0.00000041,0.00000044,-0.00000124,0.00000086,0.00001191,-
 0.00000353,-0.00000226,-0.00000183,0.00000442,0.00000639,0.00000081,0.
 00000002,-0.00000184,0.00000228,-0.00000025,-0.00000021,0.00000229,-0.
 00000056,0.00000007,0.00000008,0.00000068,0.00000038,0.00007668,-0.000
 08462,0.00001423,-0.00003867,0.00006407,-0.00005092,0.15938975,0.00002
 653,0.00000005,-0.00000210,-0.00002252,-0.00003007,0.00002124,-0.00000
 102,0.00003897,-0.00001270,-0.00015110,-0.00009037,0.00007871,0.000392
 28,0.00052219,-0.00032781,-0.00003759,-0.00009322,0.00003893,-0.000009
 97,-0.00001345,0.00000766,-0.00000432,-0.00000583,0.00000209,-0.000015
 69,-0.00000573,0.00000508,-0.00001824,0.00002989,0.00000509,0.00001480
 ,-0.00001087,-0.00000109,-0.00078855,-0.00028080,0.00030597,0.00005095
 ,-0.00011371,-0.00004077,0.00103832,-0.00016455,0.00034643,0.00080002,
 0.00294876,-0.00233832,0.00265003,0.00524447,0.00148963,-0.11854171,-0
 .20273826,-0.08398568,-0.01785398,-0.01322684,-0.00811377,0.00312929,-
 0.00144255,-0.00401657,-0.00006546,-0.00020026,0.00035089,0.00020126,0
 .00021268,-0.00013738,-0.00010136,-0.00039505,0.00209310,-0.00080196,-
 0.00074589,-0.00035524,0.00016947,-0.00005218,-0.00008445,-0.00002774,
 0.00001937,0.00003366,0.00000858,0.00000228,-0.00000643,-0.00001223,0.
 00000398,0.00000977,0.00001113,-0.00000145,-0.00000624,-0.00003353,0.0
 0001821,0.00000209,0.00000066,-0.00001697,-0.00001098,-0.00000450,-0.0
 0000157,0.00000568,-0.00000412,-0.00000048,0.00000155,-0.00000414,-0.0
 0000032,-0.00000069,0.00000496,-0.00000689,0.00000264,-0.00015424,0.00
 014657,0.00010048,0.00003944,-0.00010805,-0.00006424,0.12881324,0.2102
 9371,-0.00000668,0.00003541,-0.00004437,-0.00002562,0.00002249,0.00000
 306,-0.00001611,-0.00001559,0.00001504,0.00002393,0.00001099,-0.000010
 58,-0.00007954,-0.00007965,0.00003929,0.00008414,-0.00009898,-0.000044
 98,0.00001080,0.00000441,0.00000392,-0.00000929,0.00000284,0.00000404,
 -0.00000515,0.00000252,0.00000051,0.00000272,0.00007427,0.00006039,-0.
 00000592,0.00000563,0.00000109,-0.00012196,0.00010712,-0.00029662,-0.0
 0009834,-0.00002763,0.00006550,0.00052838,0.00035154,-0.00075668,0.001
 41299,-0.00238196,0.00557705,0.00272506,0.00364123,0.00397283,-0.05614
 242,-0.08422633,-0.07473597,-0.00977729,-0.01026003,-0.00069211,0.0020
 8325,-0.00389350,0.00315677,-0.00010727,0.00035173,-0.00063650,0.00020
 770,-0.00001165,0.00039492,-0.00043276,0.00201978,-0.00301798,-0.00046
 049,-0.00046100,-0.00015208,-0.00002743,0.00000387,-0.00000323,0.00001
 688,0.00000481,0.00000348,0.00000378,0.00000397,-0.00000501,0.00000085
 ,0.00000119,-0.00000504,-0.00000653,0.00000392,-0.00000028,0.00000381,
 -0.00000020,0.00001043,-0.00000830,-0.00000978,-0.00000241,0.00000137,
 -0.00000458,-0.00000273,-0.00000037,-0.00000157,-0.00000069,-0.0000019
 6,-0.00000038,-0.00000007,-0.00000434,-0.00000037,-0.00000312,-0.00003
 606,0.00007256,-0.00012644,0.00005084,-0.00010492,0.00016993,0.0600061
 3,0.09265624,0.06943895,0.00034931,0.00011636,-0.00009481,-0.00044064,
 -0.00043022,0.00029177,0.00036581,0.00041737,-0.00011584,-0.00173505,-
 0.00053108,0.00063666,0.00714447,0.00538857,-0.00528454,-0.00087557,-0
 .00101097,0.00073952,-0.00006499,-0.00016325,0.00011749,-0.00007853,-0
 .00007925,0.00005032,-0.00014961,0.00000467,0.00007053,0.00001815,0.00
 010887,-0.00000601,0.00021756,-0.00004518,0.00007678,-0.01499267,-0.01
 400918,-0.00903914,0.00141968,0.00032842,0.00259129,0.00525729,-0.0031
 1740,-0.00163808,-0.00659295,0.00135789,0.00116622,0.00379431,0.001752
 82,0.00123674,-0.03989849,0.00753582,0.00736013,-0.27273491,0.03536525
 ,0.03736991,-0.05005707,-0.00672684,0.00085193,-0.00152293,-0.00016179
 ,0.00003887,-0.00034289,0.00009417,-0.00000287,-0.00155733,0.00025762,
 0.00026828,0.00195214,0.00067842,-0.00001907,0.00639315,-0.00217378,-0
 .00499569,0.00027147,0.00069671,0.00312399,0.00026194,0.00012302,-0.00
 096378,-0.00075108,0.00016099,0.00029624,-0.00009572,0.00000055,-0.000
 37201,-0.00176304,0.00042064,0.00075434,-0.00117881,-0.00035831,-0.001
 13099,-0.00008309,-0.00001375,0.00018807,-0.00022252,0.00003447,0.0000
 0118,-0.00024924,0.00007620,-0.00000286,0.00010058,-0.00006730,-0.0000
 2826,-0.01357008,0.01052656,-0.00736940,0.00412433,-0.01114941,0.00673
 091,0.00293522,-0.00044347,-0.00088297,0.49489925,0.00009437,0.0001718
 6,-0.00009125,-0.00021972,-0.00018796,0.00016015,0.00005557,0.00030453
 ,0.00004393,-0.00093718,-0.00053018,0.00052658,0.00296772,0.00281055,-
 0.00300864,-0.00010515,-0.00056012,0.00031629,-0.00001106,-0.00004839,
 0.00003609,-0.00004870,-0.00002803,-0.00000288,-0.00011923,-0.00003670
 ,0.00002868,-0.00000959,0.00015049,-0.00002371,0.00001616,-0.00013167,
 -0.00009795,-0.01011365,-0.00341163,-0.00502269,-0.00085975,-0.0027003
 4,-0.00000147,0.00328466,-0.00636715,-0.00654527,0.00098417,0.00460406
 ,0.00311017,-0.00629157,-0.00461893,-0.00621207,0.04126083,0.00222193,
 -0.00666070,-0.00458259,-0.09892475,-0.02764831,-0.04227290,0.00825773
 ,0.00389001,-0.00153309,0.00012909,0.00013626,0.00009416,0.00016373,0.
 00057391,0.00146559,-0.00002495,-0.00011820,0.00076657,0.00076979,0.00
 226499,-0.00292947,0.00086560,0.00342321,0.00005017,0.00030009,-0.0011
 1469,-0.00001915,0.00003656,0.00020543,0.00027341,-0.00008835,-0.00022
 450,0.00001920,0.00001409,0.00030098,0.00114790,-0.00033223,-0.0005702
 1,0.00034504,-0.00057039,0.00009530,0.00004975,-0.00002422,-0.00008540
 ,0.00005910,-0.00003581,-0.00001304,0.00012414,-0.00003782,-0.00002183
 ,-0.00009718,-0.00001272,-0.00000833,0.01026841,-0.00241561,0.00385254
 ,-0.00733621,0.00016900,-0.00205653,0.00002271,0.00120840,0.00284062,0
 .13103318,0.40139186,0.00004533,0.00000715,0.00016314,-0.00016963,-0.0
 0023420,0.00013278,0.00011688,0.00025778,0.00004742,-0.00092117,-0.000
 33540,0.00034912,0.00185409,0.00195782,-0.00319064,-0.00025771,-0.0003
 4793,0.00042402,-0.00003713,-0.00007419,0.00001643,-0.00001961,-0.0000
 4163,-0.00001714,-0.00006534,-0.00002126,0.00002146,0.00004708,-0.0001
 1105,-0.00019011,0.00007305,-0.00005521,-0.00007669,-0.00884087,-0.006
 80121,-0.00049216,0.00090608,0.00035211,0.00039231,0.00200527,-0.00595
 684,0.00155060,0.00052192,0.00312516,0.00050534,-0.00302833,-0.0065969
 1,0.00413784,0.02447671,-0.00385611,0.00473458,0.02011044,-0.03025778,
 -0.05920835,-0.01929884,0.00075048,0.00885657,-0.00076058,-0.00000676,
 0.00015319,-0.00004134,0.00055970,-0.00058482,0.00078000,0.00003589,-0
 .00010249,0.00000877,0.00216304,-0.00228022,0.00346568,-0.00081244,-0.
 00408687,-0.00070898,0.00016191,0.00006874,0.00018682,-0.00010898,0.00
 028711,-0.00016075,0.00004624,0.00023694,0.00014231,-0.00007380,-0.000
 36203,-0.00134228,0.00039260,0.00067757,0.00006915,0.00012979,0.000201
 78,-0.00010384,0.00003595,0.00008326,0.00000577,0.00000725,0.00004221,
 -0.00010629,0.00002675,0.00004190,0.00013376,-0.00003474,0.00006985,-0
 .00998787,0.00588097,-0.00070682,0.00453905,-0.00439307,-0.00239988,-0
 .00043379,0.00277955,-0.00242410,0.04284351,0.18370219,0.13711849,-0.0
 0042851,-0.00009971,0.00020494,0.00065692,0.00047775,-0.00038615,-0.00
 031411,-0.00039610,0.00014020,0.00197711,0.00059607,-0.00073506,-0.010
 79657,-0.00794042,0.00487889,0.00103332,0.00132167,-0.00096477,0.00007
 737,0.00017096,-0.00010343,0.00007053,0.00006702,-0.00004143,0.0001927
 5,0.00002933,-0.00006122,-0.00004266,-0.00007099,0.00005013,-0.0001340
 6,0.00015106,-0.00001621,0.00816369,0.00789813,0.00532166,-0.00150818,
 0.00213830,-0.00424501,0.00000848,-0.00135275,-0.00070792,0.00100261,0
 .00043195,0.00016424,-0.00085208,-0.00054240,-0.00027921,0.00383776,-0
 .00146494,-0.00105129,-0.03138466,-0.03313197,-0.01538197,-0.00346601,
 0.00268997,0.00182111,-0.00020403,0.00014364,0.00009418,0.00017045,0.0
 0009732,0.00004473,0.00043941,-0.00012675,-0.00010583,-0.00001972,-0.0
 0003345,-0.00003934,-0.00070522,0.00059807,0.00005813,-0.00001350,-0.0
 0023734,0.00013713,-0.00022949,-0.00005366,0.00000757,0.00004852,-0.00
 000719,0.00004613,-0.00006660,-0.00002205,-0.00003345,-0.00004223,-0.0
 0009276,-0.00002449,0.00044528,0.00024879,0.00005185,0.00003092,0.0000
 2355,-0.00001514,0.00001379,0.00002826,-0.00000737,0.00001282,0.000016
 59,0.00000463,0.00001166,0.00007472,-0.00001248,-0.00158554,-0.0019123
 5,-0.00098670,0.00427811,0.00138258,0.00172885,-0.00047646,0.00174648,
 0.00109418,-0.12054743,-0.11689662,-0.05604733,0.15034557,-0.00016678,
 -0.00020402,0.00027453,0.00041765,0.00024491,-0.00025222,-0.00000347,-
 0.00033249,-0.00004143,0.00134941,0.00069552,-0.00062300,-0.00577337,-
 0.00485690,0.00274793,0.00012175,0.00092155,-0.00042437,0.00003246,0.0
 0010136,-0.00005784,0.00007965,0.00003375,-0.00001765,0.00015893,0.000
 04152,-0.00003435,0.00008481,-0.00040811,0.00001065,-0.00002615,0.0001
 2256,0.00009000,0.00527805,-0.00269072,0.00235713,0.00326326,0.0040276
 9,0.00180243,-0.00036010,0.00087765,-0.00039380,0.00067403,-0.00012300
 ,-0.00018223,-0.00016927,-0.00108646,-0.00022735,0.00500974,0.00179731
 ,0.00092023,-0.00325194,0.00704986,0.00543126,0.00431708,0.00145783,-0
 .00071887,0.00027989,0.00002282,0.00010809,0.00001402,-0.00009635,0.00
 000220,0.00026249,-0.00007629,-0.00005348,0.00002880,-0.00003007,0.000
 31859,0.00182795,-0.00060371,-0.00121929,-0.00001415,0.00001919,0.0005
 2304,0.00008397,-0.00000846,-0.00012241,-0.00022030,0.00002260,0.00004
 838,-0.00009001,-0.00003330,-0.00008824,-0.00048260,0.00001543,0.00014
 372,0.00008498,-0.00013381,-0.00024557,-0.00001558,0.00003031,0.000047
 64,-0.00003745,0.00003249,0.00000111,-0.00005166,0.00004258,0.00000378
 ,0.00003258,0.00005474,-0.00002195,-0.00278328,0.00131578,-0.00038082,
 0.00195593,-0.00643785,0.00150372,0.00003686,-0.00094416,-0.00063900,-
 0.15599741,-0.30248139,-0.14225281,0.14404921,0.30161964,-0.00017403,-
 0.00004350,-0.00013827,0.00045203,0.00045672,-0.00029527,-0.00013995,-
 0.00052470,-0.00003877,0.00213780,0.00088638,-0.00090811,-0.00471582,-
 0.00524729,0.00674274,0.00064420,0.00105246,-0.00100677,0.00007272,0.0
 0014191,-0.00005074,0.00004567,0.00006610,0.00000680,0.00017678,0.0000
 5896,-0.00005932,-0.00010357,0.00010532,0.00028319,-0.00010159,0.00016
 132,0.00012755,0.00803942,0.00692441,-0.00436295,-0.00293399,0.0009641
 1,-0.00258929,-0.00023024,-0.00017535,0.00155854,0.00045202,-0.0002172
 7,-0.00012741,-0.00009398,-0.00017235,-0.00067644,0.00250173,0.0010875
 3,0.00008206,-0.00126330,0.00890117,0.00161536,0.00353740,-0.00049264,
 0.00131726,0.00021419,0.00011270,-0.00013198,0.00001500,-0.00001774,-0
 .00008661,0.00014382,-0.00005231,-0.00003654,-0.00007812,0.00027836,-0
 .00042061,-0.00155728,0.00038788,0.00095836,0.00046137,-0.00000489,0.0
 0006638,0.00000544,0.00005546,-0.00014598,0.00000596,-0.00002775,-0.00
 013635,-0.00018577,0.00004908,0.00010319,0.00033068,-0.00016656,-0.000
 09232,-0.00004833,-0.00028579,-0.00015790,0.00004887,-0.00001203,-0.00
 003360,-0.00001367,0.00000717,-0.00001830,0.00001468,0.00001020,-0.000
 00841,-0.00003703,0.00004969,-0.00004405,0.00053730,-0.00200517,-0.001
 37236,0.00109253,0.00283780,0.00203937,0.00020818,-0.00083203,0.000043
 82,-0.07485837,-0.14597968,-0.08419033,0.06539724,0.13166230,0.0821840
 4\\-0.00000646,0.00000076,-0.00000346,0.00000366,-0.00000231,-0.000004
 53,0.00000116,0.00000327,-0.00000619,-0.00000595,0.00000304,0.00000510
 ,-0.00000261,-0.00000770,0.00000607,-0.00000030,0.00000389,-0.00000960
 ,-0.00000170,-0.00000098,-0.00000627,-0.00000079,-0.00000002,-0.000004
 62,0.00000009,0.00000035,-0.00000241,-0.00000180,-0.00000095,-0.000003
 84,-0.00000096,-0.00000114,-0.00000730,0.00001644,0.00001246,-0.000005
 35,-0.00001313,0.00000378,-0.00000473,0.00000056,-0.00000360,0.0000014
 0,-0.00000135,-0.00000061,0.00000243,0.00000025,0.00000073,0.00000121,
 0.00000034,0.00000148,-0.00000032,0.00000354,-0.00000192,0.00000183,-0
 .00000120,-0.00000368,0.00000252,0.00000006,-0.00000264,0.00000384,-0.
 00000020,-0.00000107,0.00000196,-0.00000017,0.00000042,-0.00000031,0.0
 0000086,-0.00000239,0.00000305,-0.00002208,0.00001239,0.00000894,0.000
 00179,-0.00000284,0.00000202,0.00000188,-0.00000179,0.00000148,0.00000
 065,0.00000045,-0.00000263,-0.00000364,0.00000066,0.00000914,0.0000143
 5,-0.00000131,0.00000135,-0.00000073,-0.00000164,0.00000062,-0.0000004
 9,-0.00000202,0.00000115,0.00000017,-0.00000027,0.00000136,0.00000155,
 0.00000271,0.00000210,-0.00000105,0.00000387,0.00000278,0.00001960,-0.
 00001219,-0.00000855,-0.00000311,-0.00000266,0.00000097,0.00000032,0.0
 0000020,-0.00000082,-0.00000331,0.00000718,0.00000174,0.00000374,-0.00
 000389,0.00000788\\\@


 THE LENGTH OF A MEETING IS PROPORTIONAL TO THE
 SQUARE OF THE PARTICIPANTS.
 Job cpu time:       0 days 23 hours 25 minutes 36.6 seconds.
 Elapsed time:       0 days  2 hours 55 minutes 59.4 seconds.
 File lengths (MBytes):  RWF=   1044 Int=      0 D2E=      0 Chk=     34 Scr=      1
 Normal termination of Gaussian 16 at Wed Jun  5 03:31:09 2019.
